# Force coefficients    
# dragDir               : (9.8480778300336347e-01 1.7364800757855070e-01 0.0000000000000000e+00)
# sideDir               : (0.0000000000000000e+00 0.0000000000000000e+00 -1.0000000000000002e+00)
# liftDir               : (-1.7364800757855070e-01 9.8480778300336336e-01 0.0000000000000000e+00)
# rollAxis              : (9.8480778300336347e-01 1.7364800757855070e-01 0.0000000000000000e+00)
# pitchAxis             : (0.0000000000000000e+00 0.0000000000000000e+00 -1.0000000000000002e+00)
# yawAxis               : (-1.7364800757855070e-01 9.8480778300336336e-01 0.0000000000000000e+00)
# magUInf               : 1.0000000000000000e+00
# lRef                  : 1.0000000000000000e+00
# Aref                  : 1.0000000000000000e+00
# CofR                  : (2.5000000000000000e-01 0.0000000000000000e+00 -5.0000000000000000e-01)
#
# Time                  	Cd                      	Cs                      	Cl                      	CmRoll                  	CmPitch                 	CmYaw                   	Cd(f)                   	Cd(r)                   	Cs(f)                   	Cs(r)                   	Cl(f)                   	Cl(r)                   
2                       	1.1354863774782865e+01	1.0377633513484670e-20	1.8630978753635844e+01	-1.8630978753635844e+01	-7.4084696336090703e+00	1.1354863774782864e+01	-1.2953546866244412e+01	2.4308410641027276e+01	1.1354863774782864e+01	-1.1354863774782864e+01	1.9070197432088518e+00	1.6723959010426992e+01
3                       	1.2098262422266326e+00	-4.9726635098918711e-21	-3.9561012533322798e-01	3.9561012533322798e-01	-8.1061419134208113e-02	1.2098262422266326e+00	1.0005232464465443e+00	2.0930299578008832e-01	1.2098262422266326e+00	-1.2098262422266326e+00	-2.7886648180082207e-01	-1.1674364353240588e-01
4                       	6.6346692481649427e-01	-2.6463068835074484e-21	1.5897164424945669e+00	-1.5897164424945671e+00	-1.6119304331922860e-01	6.6346692481649405e-01	-1.2579829800863200e+00	1.9214499049028142e+00	6.6346692481649405e-01	-6.6346692481649405e-01	6.3366517792805488e-01	9.5605126456651202e-01
5                       	-4.5622696901247423e-01	-1.3058324650761737e-21	3.2715646784900387e-01	-3.2715646784900398e-01	2.2199503530792428e-01	-4.5622696901247423e-01	-5.5526995235524113e-01	9.9042983342766872e-02	-4.5622696901247423e-01	4.5622696901247423e-01	3.8557326923242619e-01	-5.8416801383422340e-02
6                       	1.3185055459258382e-01	-1.2406681389401097e-21	9.8294925210847739e-01	-9.8294925210847728e-01	-4.8932973904042165e-02	1.3185055459258380e-01	-9.1702397481218534e-01	1.0488745294047692e+00	1.3185055459258380e-01	-1.3185055459258380e-01	4.4254165215019653e-01	5.4040759995828092e-01
7                       	-1.6476494127402375e-02	-6.3261189398592499e-22	4.1884375913885935e-01	-4.1884375913885941e-01	2.3144894077561852e-02	-1.6476494127402375e-02	-4.2708200620256059e-01	4.1060551207515822e-01	-1.6476494127402375e-02	1.6476494127402375e-02	2.3256677364699152e-01	1.8627698549186783e-01
8                       	1.6880071125519891e-01	-9.3622350283650083e-22	5.6804129449625529e-01	-5.6804129449625540e-01	-2.7092153715497894e-02	1.6880071125519894e-01	-4.8364093886865595e-01	6.5244165012385480e-01	1.6880071125519894e-01	-1.6880071125519894e-01	2.5692849353262975e-01	3.1111280096362554e-01
9                       	7.5107006899497661e-02	-6.7197357659388789e-22	4.8598981414840237e-01	-4.8598981414840242e-01	-2.1259671857571726e-02	7.5107006899497689e-02	-4.4843631069865358e-01	5.2354331759815120e-01	7.5107006899497689e-02	-7.5107006899497689e-02	2.2173523521662947e-01	2.6425457893177290e-01
10                      	1.1154098979695856e-01	-8.3819378078582215e-22	6.1404098071432334e-01	-6.1404098071432334e-01	-3.2866904371482340e-02	1.1154098979695856e-01	-5.5827048581584404e-01	6.6981147561280263e-01	1.1154098979695856e-01	-1.1154098979695856e-01	2.7415358598567935e-01	3.3988739472864399e-01
11                      	6.8172368168148173e-02	-6.4155056585555327e-22	6.2560642409420342e-01	-6.2560642409420353e-01	-4.3893627284731999e-02	6.8172368168148173e-02	-5.9152024001012948e-01	6.5969260817827757e-01	6.8172368168148173e-02	-6.8172368168148173e-02	2.6890958476236970e-01	3.5669683933183371e-01
12                      	8.9900856717087127e-02	-6.4624780685625359e-22	6.7829940054915017e-01	-6.7829940054915017e-01	-4.9845555712706074e-02	8.9900856717087169e-02	-6.3334897219060660e-01	7.2324982890769374e-01	8.9900856717087169e-02	-8.9900856717087169e-02	2.8930414456186904e-01	3.8899525598728113e-01
13                      	8.4519233583619499e-02	-5.1117876680090286e-22	6.8928546207666230e-01	-6.8928546207666241e-01	-5.8573902490367459e-02	8.4519233583619499e-02	-6.4702584528485263e-01	7.3154507886847220e-01	8.4519233583619499e-02	-8.4519233583619499e-02	2.8606882854796367e-01	4.0321663352869863e-01
14                      	9.7632430534299847e-02	-4.4869624289489165e-22	7.2331080551404880e-01	-7.2331080551404880e-01	-6.5982964128856958e-02	9.7632430534299847e-02	-6.7449459024689884e-01	7.7212702078119877e-01	9.7632430534299847e-02	-9.7632430534299847e-02	2.9567243862816744e-01	4.2763836688588136e-01
15                      	9.8640729958758569e-02	-3.6744952707549649e-22	7.4315237321147265e-01	-7.4315237321147254e-01	-7.1635480170888804e-02	9.8640729958758555e-02	-6.9383200823209323e-01	7.9247273819085184e-01	9.8640729958758555e-02	-9.8640729958758555e-02	2.9994070643484749e-01	4.4321166677662516e-01
16                      	1.0534783360496502e-01	-3.2358745322512755e-22	7.7041052172285962e-01	-7.7041052172285962e-01	-7.7352479481441874e-02	1.0534783360496504e-01	-7.1773660492037705e-01	8.2308443852534219e-01	1.0534783360496504e-01	-1.0534783360496504e-01	3.0785278137998795e-01	4.6255774034287167e-01
17                      	1.0844527360271221e-01	-2.8089126106961375e-22	7.9456495555176720e-01	-7.9456495555176743e-01	-8.2338973523490025e-02	1.0844527360271222e-01	-7.4034231875041134e-01	8.4878759235312351e-01	1.0844527360271222e-01	-1.0844527360271222e-01	3.1494350425239359e-01	4.7962145129937361e-01
18                      	1.1329996126436916e-01	-2.4529608642679685e-22	8.1802213084050168e-01	-8.1802213084050168e-01	-8.7242445029626622e-02	1.1329996126436918e-01	-7.6137215020831706e-01	8.7467211147268631e-01	1.1329996126436918e-01	-1.1329996126436918e-01	3.2176862039062420e-01	4.9625351044987748e-01
19                      	1.1687278903356239e-01	-2.0796371784702042e-22	8.3891500111736961e-01	-8.3891500111736972e-01	-9.1369396417994325e-02	1.1687278903356241e-01	-7.8047860660058854e-01	8.9735139563415089e-01	1.1687278903356241e-01	-1.1687278903356241e-01	3.2808810414069045e-01	5.1082689697667916e-01
20                      	1.2244021755021625e-01	-1.6530321295020146e-22	8.5872092721728233e-01	-8.5872092721728244e-01	-9.5749519283142348e-02	1.2244021755021628e-01	-7.9750081844217435e-01	9.1994103599239052e-01	1.2244021755021628e-01	-1.2244021755021628e-01	3.3361094432549881e-01	5.2510998289178357e-01
21                      	1.2811010333072925e-01	-1.2710359797344534e-22	8.7629477937132094e-01	-8.7629477937132061e-01	-9.9710973550201587e-02	1.2811010333072920e-01	-8.1223972770595598e-01	9.4034983103668524e-01	1.2811010333072920e-01	-1.2811010333072920e-01	3.3843641613545888e-01	5.3785836323586200e-01
22                      	1.3217289515391792e-01	-9.3992615042382048e-23	8.9313555368897868e-01	-8.9313555368897868e-01	-1.0316469667532656e-01	1.3217289515391795e-01	-8.2704910611201976e-01	9.5922200126593760e-01	1.3217289515391795e-01	-1.3217289515391795e-01	3.4340308016916277e-01	5.4973247351981591e-01
23                      	1.3592269948105365e-01	-5.6521466051897688e-23	9.0994210844988255e-01	-9.0994210844988266e-01	-1.0660617013617139e-01	1.3592269948105365e-01	-8.4198075870935585e-01	9.7790345819040947e-01	1.3592269948105365e-01	-1.3592269948105365e-01	3.4836488408876987e-01	5.6157722436111268e-01
24                      	1.3947034065024963e-01	-2.2127864316997768e-23	9.2621316760223027e-01	-9.2621316760223049e-01	-1.0965143048557878e-01	1.3947034065024966e-01	-8.5647799727710572e-01	9.9594833792735527e-01	1.3947034065024966e-01	-1.3947034065024966e-01	3.5345515331553634e-01	5.7275801428669393e-01
25                      	1.4170171209420565e-01	1.3690410966951388e-23	9.4108460742022493e-01	-9.4108460742022515e-01	-1.1224717126527144e-01	1.4170171209420568e-01	-8.7023375137312231e-01	1.0119354634673279e+00	1.4170171209420568e-01	-1.4170171209420568e-01	3.5829513244484101e-01	5.8278947497538391e-01
26                      	1.4364019169070277e-01	4.5165117600711387e-23	9.5528324328131164e-01	-9.5528324328131176e-01	-1.1438963057134724e-01	1.4364019169070277e-01	-8.8346314743596033e-01	1.0271033391266631e+00	1.4364019169070277e-01	-1.4364019169070277e-01	3.6325199106930861e-01	5.9203125221200303e-01
27                      	1.4491620091253468e-01	7.2415759501930458e-23	9.6823087971457944e-01	-9.6823087971457955e-01	-1.1617411519288028e-01	1.4491620091253468e-01	-8.9577277925831222e-01	1.0406889801708470e+00	1.4491620091253468e-01	-1.4491620091253468e-01	3.6794132466440943e-01	6.0028955505017001e-01
28                      	1.4593998265756256e-01	9.5034036933886501e-23	9.8025670633620754e-01	-9.8025670633620765e-01	-1.1767912190639929e-01	1.4593998265756256e-01	-9.0728671500742641e-01	1.0532266976649889e+00	1.4593998265756256e-01	-1.4593998265756256e-01	3.7244923126170448e-01	6.0780747507450306e-01
29                      	1.4655335817148549e-01	1.1569343974462495e-22	9.9124997060820563e-01	-9.9124997060820574e-01	-1.1886395114371043e-01	1.4655335817148546e-01	-9.1797329152246299e-01	1.0645266496939485e+00	1.4655335817148546e-01	-1.4655335817148546e-01	3.7676103416039242e-01	6.1448893644781322e-01
30                      	1.4684170498579674e-01	1.3446535311039032e-22	1.0013055163185698e+00	-1.0013055163185696e+00	-1.1975092157938130e-01	1.4684170498579671e-01	-9.2788466382567125e-01	1.0747263688114679e+00	1.4684170498579671e-01	-1.4684170498579671e-01	3.8090183657990362e-01	6.2040367973866617e-01
31                      	1.4694756188366537e-01	1.5253052421911788e-22	1.0108353856204357e+00	-1.0108353856204357e+00	-1.2042714049763006e-01	1.4694756188366540e-01	-9.3736160467860308e-01	1.0843091665622684e+00	1.4694756188366540e-01	-1.4694756188366540e-01	3.8499055231258783e-01	6.2584483330784790e-01
32                      	1.4692820782660512e-01	1.6945506386833455e-22	1.0196052755146356e+00	-1.0196052755146356e+00	-1.2084449984066938e-01	1.4692820782660512e-01	-9.4614117160133304e-01	1.0930693794279382e+00	1.4692820782660512e-01	-1.4692820782660512e-01	3.8895813791664846e-01	6.3064713759798718e-01
33                      	1.4688931529761109e-01	1.8591922699086805e-22	1.0283337857467902e+00	-1.0283337857467905e+00	-1.2115506668651600e-01	1.4688931529761112e-01	-9.5488912809798487e-01	1.1017784433955959e+00	1.4688931529761112e-01	-1.4688931529761112e-01	3.9301182618687913e-01	6.3532195955991111e-01
34                      	1.4666078045328931e-01	2.0213825135737500e-22	1.0365523220049739e+00	-1.0365523220049744e+00	-1.2127090434848999e-01	1.4666078045328934e-01	-9.6322193177832971e-01	1.1098827122316191e+00	1.4666078045328934e-01	-1.4666078045328934e-01	3.9700525665399700e-01	6.3954706535097694e-01
35                      	1.4628213575070567e-01	2.1861779516853008e-22	1.0446565216820973e+00	-1.0446565216820973e+00	-1.2124153827762059e-01	1.4628213575070570e-01	-9.7151545380674453e-01	1.1177975895574501e+00	1.4628213575070570e-01	-1.4628213575070570e-01	4.0108672256342809e-01	6.4356979911866929e-01
36                      	1.4560892320533911e-01	2.3587413264698142e-22	1.0524547514931195e+00	-1.0524547514931195e+00	-1.2101297928157274e-01	1.4560892320533911e-01	-9.7965028989045000e-01	1.1252592130957890e+00	1.4560892320533911e-01	-1.4560892320533911e-01	4.0521439646498703e-01	6.4724035502813249e-01
37                      	1.4479793235139116e-01	2.5366163161315430e-22	1.0603440196222271e+00	-1.0603440196222274e+00	-1.2064497660848335e-01	1.4479793235139118e-01	-9.8794505344653172e-01	1.1327429857979230e+00	1.4479793235139118e-01	-1.4479793235139118e-01	4.0952703320263023e-01	6.5081698641959695e-01
38                      	1.4376710664384773e-01	2.7212131920079409e-22	1.0678595079280524e+00	-1.0678595079280524e+00	-1.2008567738363354e-01	1.4376710664384773e-01	-9.9597595460612853e-01	1.1397430612499764e+00	1.4376710664384773e-01	-1.4376710664384773e-01	4.1384407658039268e-01	6.5401543134765971e-01
39                      	1.4257520133131588e-01	2.9106162837106520e-22	1.0753082681769275e+00	-1.0753082681769275e+00	-1.1934924299654751e-01	1.4257520133131585e-01	-1.0040206675112695e+00	1.1465958688425855e+00	1.4257520133131585e-01	-1.4257520133131585e-01	4.1830489109191626e-01	6.5700337708501122e-01
40                      	1.4120331672984737e-01	3.1049814826990935e-22	1.0822076736954154e+00	-1.0822076736954152e+00	-1.1843406010856587e-01	1.4120331672984737e-01	-1.0116060153304915e+00	1.1528093320603388e+00	1.4120331672984737e-01	-1.4120331672984737e-01	4.2266977673914180e-01	6.5953789695627352e-01
41                      	1.3979372022885095e-01	3.3064995771839473e-22	1.0892274007806484e+00	-1.0892274007806484e+00	-1.1737071290808752e-01	1.3979372022885095e-01	-1.0193305406662230e+00	1.1591242608950738e+00	1.3979372022885095e-01	-1.3979372022885095e-01	4.2724298748223666e-01	6.6198441329841173e-01
42                      	1.3841057745614405e-01	3.5135865819098458e-22	1.0958100743408217e+00	-1.0958100743408217e+00	-1.1620652394925637e-01	1.3841057745614405e-01	-1.0266047856127496e+00	1.1650153630688938e+00	1.3841057745614405e-01	-1.3841057745614405e-01	4.3169851322115449e-01	6.6411156111966718e-01
43                      	1.3710374464159139e-01	3.7251604185176223e-22	1.1020625994235167e+00	-1.1020625994235167e+00	-1.1496137170077854e-01	1.3710374464159142e-01	-1.0335107271027211e+00	1.1706144717443123e+00	1.3710374464159142e-01	-1.3710374464159142e-01	4.3606992801097982e-01	6.6599267141253693e-01
44                      	1.3606160354750643e-01	3.9442785782181441e-22	1.1084345330170364e+00	-1.1084345330170364e+00	-1.1367805826262078e-01	1.3606160354750646e-01	-1.0404037312432832e+00	1.1764653347907896e+00	1.3606160354750646e-01	-1.3606160354750646e-01	4.4053920824589743e-01	6.6789532477113900e-01
45                      	1.3521069536272307e-01	4.1670193261828808e-22	1.1142599089225356e+00	-1.1142599089225356e+00	-1.1240427548027827e-01	1.3521069536272307e-01	-1.0466545612411740e+00	1.1818652566038972e+00	1.3521069536272307e-01	-1.3521069536272307e-01	4.4472567898098952e-01	6.6953422994154610e-01
46                      	1.3440670511508238e-01	4.3930334779459097e-22	1.1198011963837351e+00	-1.1198011963837353e+00	-1.1108961447685728e-01	1.3440670511508240e-01	-1.0525978438261940e+00	1.1870045489412766e+00	1.3440670511508240e-01	-1.3440670511508240e-01	4.4881098371501027e-01	6.7099021266872483e-01
47                      	1.3358451330412069e-01	4.6244573994791644e-22	1.1252087194623108e+00	-1.1252087194623110e+00	-1.0976555477936796e-01	1.3358451330412069e-01	-1.0584164628102508e+00	1.1920009761143713e+00	1.3358451330412069e-01	-1.3358451330412069e-01	4.5283880495178747e-01	6.7236991451052341e-01
48                      	1.3282513295745316e-01	4.8624340722855061e-22	1.1307737407824250e+00	-1.1307737407824252e+00	-1.0846370751774465e-01	1.3282513295745316e-01	-1.0643611743036987e+00	1.1971863072611517e+00	1.3282513295745316e-01	-1.3282513295745316e-01	4.5692316287346785e-01	6.7385057790895719e-01
49                      	1.3218035930700481e-01	5.1053467809445134e-22	1.1362914864069886e+00	-1.1362914864069886e+00	-1.0720115449211572e-01	1.3218035930700481e-01	-1.0702013067534861e+00	1.2023816660604911e+00	1.3218035930700481e-01	-1.3218035930700481e-01	4.6094458871137861e-01	6.7534689769561007e-01
50                      	1.3166714373127217e-01	5.3510945431338951e-22	1.1418112323058591e+00	-1.1418112323058591e+00	-1.0597747200749086e-01	1.3166714373127220e-01	-1.0759776604402231e+00	1.2076448041714951e+00	1.3166714373127220e-01	-1.3166714373127220e-01	4.6492814414543870e-01	6.7688308816042042e-01
51                      	1.3118856844450030e-01	5.5981401721393503e-22	1.1472382913827579e+00	-1.1472382913827579e+00	-1.0478319908629644e-01	1.3118856844450028e-01	-1.0816440071605078e+00	1.2128325756050080e+00	1.3118856844450028e-01	-1.3118856844450028e-01	4.6883594660508254e-01	6.7840234477767536e-01
52                      	1.3066454904211502e-01	5.8427458537238083e-22	1.1525520988561122e+00	-1.1525520988561122e+00	-1.0362698807652931e-01	1.3066454904211502e-01	-1.0872198243350546e+00	1.2178843733771698e+00	1.3066454904211502e-01	-1.3066454904211502e-01	4.7264906135152679e-01	6.7990303750458536e-01
53                      	1.3008764152353175e-01	6.0848169235400136e-22	1.1579963783727576e+00	-1.1579963783727578e+00	-1.0251411069353850e-01	1.3008764152353172e-01	-1.0929525576109920e+00	1.2230401991345237e+00	1.3008764152353172e-01	-1.3008764152353172e-01	4.7648407849284030e-01	6.8151229987991724e-01
54                      	1.2944480367611069e-01	6.3215893161889953e-22	1.1635273416485448e+00	-1.1635273416485445e+00	-1.0147600873254868e-01	1.2944480367611066e-01	-1.0988049398104891e+00	1.2282497434866000e+00	1.2944480367611066e-01	-1.2944480367611066e-01	4.8028766209172369e-01	6.8323967955682108e-01
55                      	1.2870226327347928e-01	6.5508730626960770e-22	1.1692873517425548e+00	-1.1692873517425548e+00	-1.0052159136979948e-01	1.2870226327347928e-01	-1.1049362201058153e+00	1.2336384833792944e+00	1.2870226327347928e-01	-1.2870226327347928e-01	4.8412208450147792e-01	6.8516526724107685e-01
56                      	1.2785301328382995e-01	6.7708507087874901e-22	1.1752777317854453e+00	-1.1752777317854453e+00	-9.9669949735546146e-02	1.2785301328382995e-01	-1.1113512251435302e+00	1.2392042384273603e+00	1.2785301328382995e-01	-1.2785301328382995e-01	4.8796891615717647e-01	6.8730881562826873e-01
57                      	1.2690058414066288e-01	6.9773060480924168e-22	1.1813903585366106e+00	-1.1813903585366106e+00	-9.8919247833132148e-02	1.2690058414066291e-01	-1.1179400664662791e+00	1.2448406506069420e+00	1.2690058414066291e-01	-1.2690058414066291e-01	4.9177593143517312e-01	6.8961442710143739e-01
58                      	1.2586765167244779e-01	7.1741943124730295e-22	1.1880859637768846e+00	-1.1880859637768844e+00	-9.8283292839512107e-02	1.2586765167244779e-01	-1.1251521379406604e+00	1.2510197896131083e+00	1.2586765167244779e-01	-1.2586765167244779e-01	4.9575968904893020e-01	6.9232627472795438e-01
59                      	1.2478269211968103e-01	7.3589799588091073e-22	1.1949055708242002e+00	-1.1949055708242005e+00	-9.7746142781817494e-02	1.2478269211968104e-01	-1.1325142247643600e+00	1.2572969168840409e+00	1.2478269211968104e-01	-1.2478269211968104e-01	4.9970664263028264e-01	6.9519892819391760e-01
60                      	1.2357020639077591e-01	7.5317436241077626e-22	1.2019365556889976e+00	-1.2019365556889976e+00	-9.7246771922796196e-02	1.2357020639077593e-01	-1.1401514524936096e+00	1.2637216588843856e+00	1.2357020639077593e-01	-1.2357020639077593e-01	5.0372150592170262e-01	6.9821504976729498e-01
61                      	1.2225110903784328e-01	7.6932214416960526e-22	1.2089442956510492e+00	-1.2089442956510490e+00	-9.6761916803213721e-02	1.2225110903784328e-01	-1.1478187411321275e+00	1.2700698501699705e+00	1.2225110903784328e-01	-1.2225110903784328e-01	5.0771023102231094e-01	7.0123406462873827e-01
62                      	1.2084673771188394e-01	7.8433395742460896e-22	1.2158043512524670e+00	-1.2158043512524670e+00	-9.6272736103280840e-02	1.2084673771188395e-01	-1.1553809823965251e+00	1.2762277201084089e+00	1.2084673771188395e-01	-1.2084673771188395e-01	5.1162943952295270e-01	7.0417491172951430e-01
63                      	1.1935502982506836e-01	7.9879173252011156e-22	1.2228394062832348e+00	-1.2228394062832348e+00	-9.5778852455329577e-02	1.1935502982506839e-01	-1.1631618913707007e+00	1.2825169211957690e+00	1.1935502982506839e-01	-1.1935502982506839e-01	5.1564085068628784e-01	7.0719855559694700e-01
64                      	1.1787205120838889e-01	8.1206639032704258e-22	1.2293958434177821e+00	-1.2293958434177821e+00	-9.5269857611113090e-02	1.1787205120838891e-01	-1.1704598178135877e+00	1.2883318690219765e+00	1.1787205120838891e-01	-1.1787205120838891e-01	5.1942806409777798e-01	7.0996777932000410e-01
65                      	1.1628877828166566e-01	8.2520863468598432e-22	1.2363556840615462e+00	-1.2363556840615462e+00	-9.4740472421112124e-02	1.1628877828166569e-01	-1.1782112949207133e+00	1.2945000732023790e+00	1.1628877828166569e-01	-1.1628877828166569e-01	5.2343736960966092e-01	7.1291831445188525e-01
66                      	1.1480168193402035e-01	8.3696429388048545e-22	1.2424342070686165e+00	-1.2424342070686165e+00	-9.4203637766990103e-02	1.1480168193402036e-01	-1.1850333661016064e+00	1.2998350480356267e+00	1.1480168193402036e-01	-1.1480168193402036e-01	5.2701346576731811e-01	7.1542074130129840e-01
67                      	1.1319614825336745e-01	8.4851817157881133e-22	1.2488637535990665e+00	-1.2488637535990668e+00	-9.3627261799694925e-02	1.1319614825336749e-01	-1.1922656794723829e+00	1.3054618277257506e+00	1.1319614825336749e-01	-1.1319614825336749e-01	5.3080461499983833e-01	7.1805913859922821e-01
68                      	1.1170095970688267e-01	8.5926101721662441e-22	1.2547382678789578e+00	-1.2547382678789580e+00	-9.3073077388352063e-02	1.1170095970688271e-01	-1.1988877880255167e+00	1.3105887477323994e+00	1.1170095970688271e-01	-1.1170095970688271e-01	5.3429605655112689e-01	7.2044221132783093e-01
69                      	1.1023046753240416e-01	8.6919466169520344e-22	1.2601379274106717e+00	-1.2601379274106717e+00	-9.2514570263255630e-02	1.1023046753240415e-01	-1.2050226936444697e+00	1.3152531611768736e+00	1.1023046753240415e-01	-1.1023046753240415e-01	5.3755439344208023e-01	7.2258353396859143e-01
70                      	1.0877543699012672e-01	8.7895322983527511e-22	1.2655419755171355e+00	-1.2655419755171358e+00	-9.1964725920199900e-02	1.0877543699012675e-01	-1.2111542570220724e+00	1.3199296940121992e+00	1.0877543699012675e-01	-1.0877543699012675e-01	5.4080626183836789e-01	7.2473571367876766e-01
71                      	1.0742569751123224e-01	8.8866124319822269e-22	1.2707160963992412e+00	-1.2707160963992412e+00	-9.1464290986485369e-02	1.0742569751123227e-01	-1.2170032476436250e+00	1.3244289451548574e+00	1.0742569751123227e-01	-1.0742569751123227e-01	5.4389375721313526e-01	7.2682233918610595e-01
72                      	1.0620986848722599e-01	8.9817681402228010e-22	1.2754994505968240e+00	-1.2754994505968240e+00	-9.1010315902655625e-02	1.0620986848722599e-01	-1.2223945163532111e+00	1.3286043848404370e+00	1.0620986848722599e-01	-1.0620986848722599e-01	5.4673940939575638e-01	7.2876004120106763e-01
73                      	1.0509995330535118e-01	9.0760367674244607e-22	1.2800740917530129e+00	-1.2800740917530131e+00	-9.0585712467471019e-02	1.0509995330535123e-01	-1.2275241151003375e+00	1.3326240684056887e+00	1.0509995330535123e-01	-1.0509995330535123e-01	5.4945133340903540e-01	7.3062275834397750e-01
74                      	1.0410367398857344e-01	9.1713849951190047e-22	1.2844357620219795e+00	-1.2844357620219793e+00	-9.0181398456926160e-02	1.0410367398857338e-01	-1.2323839250276927e+00	1.3364875990162659e+00	1.0410367398857338e-01	-1.0410367398857338e-01	5.5203648255406357e-01	7.3239927946791594e-01
75                      	1.0322888709749937e-01	9.2675674084784373e-22	1.2884089547286106e+00	-1.2884089547286108e+00	-8.9790809595962709e-02	1.0322888709749943e-01	-1.2367945111798611e+00	1.3400233982773606e+00	1.0322888709749943e-01	-1.0322888709749943e-01	5.5441366776834256e-01	7.3399528696026806e-01
76                      	1.0246113742879627e-01	9.3640720465203667e-22	1.2921289283664514e+00	-1.2921289283664514e+00	-8.9407627285437705e-02	1.0246113742879630e-01	-1.2408983596520533e+00	1.3433594970808496e+00	1.0246113742879630e-01	-1.0246113742879630e-01	5.5665683689778800e-01	7.3547209146866344e-01
77                      	1.0180027502190053e-01	9.4613642848792919e-22	1.2955568291894759e+00	-1.2955568291894759e+00	-8.9036977239235940e-02	1.0180027502190056e-01	-1.2446566916785256e+00	1.3464569667004262e+00	1.0180027502190056e-01	-1.0180027502190056e-01	5.5874143735550197e-01	7.3681539183397393e-01
78                      	1.0126145063217684e-01	9.5599494152067392e-22	1.2989222710877919e+00	-1.2989222710877921e+00	-8.8686395643740035e-02	1.0126145063217684e-01	-1.2482915457717036e+00	1.3495529964038806e+00	1.0126145063217684e-01	-1.0126145063217684e-01	5.6077473990015592e-01	7.3814753118763599e-01
79                      	1.0080178900688705e-01	9.6588838576649777e-22	1.3020009713065810e+00	-1.3020009713065810e+00	-8.8350214487679449e-02	1.0080178900688708e-01	-1.2516000768031375e+00	1.3524018658100245e+00	1.0080178900688708e-01	-1.0080178900688708e-01	5.6265027116561106e-01	7.3935070014096993e-01
80                      	1.0038606102703050e-01	9.7555971664183648e-22	1.3050132130954686e+00	-1.3050132130954686e+00	-8.8023980179270850e-02	1.0038606102703053e-01	-1.2548201825819534e+00	1.3552062436089838e+00	1.0038606102703053e-01	-1.0038606102703053e-01	5.6448262636846347e-01	7.4053058672700511e-01
81                      	1.0002457686004516e-01	9.8516013305841894e-22	1.3080050853678795e+00	-1.3080050853678797e+00	-8.7722803687003470e-02	1.0002457686004516e-01	-1.2579927969378573e+00	1.3580173737979022e+00	1.0002457686004516e-01	-1.0002457686004516e-01	5.6627973899693629e-01	7.4172534637094323e-01
82                      	9.9659265163878394e-02	9.9452207362351790e-22	1.3109155275810038e+00	-1.3109155275810038e+00	-8.7441626887890131e-02	9.9659265163878449e-02	-1.2610858949990646e+00	1.3607451601629430e+00	9.9659265163878449e-02	-9.9659265163878449e-02	5.6801613690261177e-01	7.4289939067839206e-01
83                      	9.9296435457802215e-02	1.0036111087552468e-21	1.3139162397009845e+00	-1.3139162397009845e+00	-8.7193077589322654e-02	9.9296435457802243e-02	-1.2642680219720834e+00	1.3635644574298855e+00	9.9296435457802243e-02	-9.9296435457802243e-02	5.6976504226116953e-01	7.4415119743981495e-01
84                      	9.8886542029525543e-02	1.0123309268107225e-21	1.3169345609970344e+00	-1.3169345609970347e+00	-8.6966703701951018e-02	9.8886542029525598e-02	-1.2674912899822719e+00	1.3663778320117974e+00	9.8886542029525598e-02	-9.8886542029525598e-02	5.7150057679656618e-01	7.4543398420046825e-01
85                      	9.8470911803820282e-02	1.0206624673963951e-21	1.3201886949663095e+00	-1.3201886949663098e+00	-8.6775814642139348e-02	9.8470911803820310e-02	-1.2709532390643996e+00	1.3694241508682199e+00	9.8470911803820310e-02	-9.8470911803820310e-02	5.7331853284101542e-01	7.4687016212529411e-01
86                      	9.7980129077979941e-02	1.0284655782320634e-21	1.3235649851137752e+00	-1.3235649851137752e+00	-8.6600500614581841e-02	9.7980129077979969e-02	-1.2745749205747852e+00	1.3725550496527652e+00	9.7980129077979969e-02	-9.7980129077979969e-02	5.7518199194230579e-01	7.4838299317146939e-01
87                      	9.7389624708754285e-02	1.0358240674659444e-21	1.3270843400481576e+00	-1.3270843400481576e+00	-8.6425810264893071e-02	9.7389624708754313e-02	-1.2783895276937804e+00	1.3757791524025347e+00	9.7389624708754313e-02	-9.7389624708754313e-02	5.7711635975918574e-01	7.4996798028897182e-01
88                      	9.6675411593321228e-02	1.0427397551454100e-21	1.3306666560447991e+00	-1.3306666560447993e+00	-8.6246796083803465e-02	9.6675411593321228e-02	-1.2823289502481388e+00	1.3790043618414598e+00	9.6675411593321228e-02	-9.6675411593321228e-02	5.7908653193859605e-01	7.5158012410620301e-01
89                      	9.5837544243191658e-02	1.0491930274233154e-21	1.3343095717109510e+00	-1.3343095717109510e+00	-8.6058838602606061e-02	9.5837544243191686e-02	-1.2863907995893551e+00	1.3822283438325469e+00	9.5837544243191686e-02	-9.5837544243191686e-02	5.8109594725286939e-01	7.5321362445808160e-01
90                      	9.4871824367664587e-02	1.0551293231230132e-21	1.3379339661775840e+00	-1.3379339661775840e+00	-8.5853358586566481e-02	9.4871824367664642e-02	-1.2904980539937516e+00	1.3853698783614163e+00	9.4871824367664642e-02	-9.4871824367664642e-02	5.8311362450222548e-01	7.5482034167535850e-01
91                      	9.3793378352374043e-02	1.0606810097553322e-21	1.3416925923334464e+00	-1.3416925923334464e+00	-8.5650534153283706e-02	9.3793378352374071e-02	-1.2947959031572593e+00	1.3885892815096335e+00	9.3793378352374071e-02	-9.3793378352374071e-02	5.8519576201343948e-01	7.5649683032000692e-01
92                      	9.2603225114739729e-02	1.0658192979517598e-21	1.3454555857457255e+00	-1.3454555857457258e+00	-8.5440317445050012e-02	9.2603225114739729e-02	-1.2991539731883559e+00	1.3917571983030956e+00	9.2603225114739729e-02	-9.2603225114739729e-02	5.8728747542781279e-01	7.5816811031791276e-01
93                      	9.1304257180986989e-02	1.0704789529695988e-21	1.3491941780986649e+00	-1.3491941780986649e+00	-8.5216747460776607e-02	9.1304257180987072e-02	-1.3035420495081715e+00	1.3948463066891583e+00	9.1304257180987072e-02	-9.1304257180987072e-02	5.8938034158855590e-01	7.5981383651010903e-01
94                      	8.9915285259818609e-02	1.0745773033296741e-21	1.3528294097810971e+00	-1.3528294097810973e+00	-8.4977218442037511e-02	8.9915285259818636e-02	-1.3078717671511881e+00	1.3977870524110065e+00	8.9915285259818636e-02	-8.9915285259818636e-02	5.9143748644851102e-01	7.6139192333258610e-01
95                      	8.8444980458502451e-02	1.0782796543913931e-21	1.3565984878151709e+00	-1.3565984878151711e+00	-8.4752140584017338e-02	8.8444980458502506e-02	-1.3123759975859199e+00	1.4008209780444223e+00	8.8444980458502506e-02	-8.8444980458502506e-02	5.9354710332356808e-01	7.6305138449160281e-01