# Wall shear stress     
# Time                  	patch                   	min                     	max                     
101                     	airfoil	(-4.3557299778681927e-03 -6.6584172060614351e-03 -4.3951989234932635e-20)	(1.2609117763823603e-03 1.2806583235383687e-03 9.0485396771864071e-20)
201                     	airfoil	(-6.5105736538122912e-03 -9.5221014163350721e-03 -5.1192857812908487e-20)	(1.1151402947791591e-03 9.1968559918414040e-04 1.0768136657044811e-19)
301                     	airfoil	(-6.8990769467002742e-03 -9.7238916102966397e-03 -5.2886202725944330e-20)	(1.1140134008584737e-03 1.0147580412689814e-03 1.1151979785340155e-19)
401                     	airfoil	(-7.0146370870173454e-03 -9.8236396186963653e-03 -5.3202016319974438e-20)	(1.1273480848258176e-03 6.9170506277452855e-04 1.1227678902087233e-19)
501                     	airfoil	(-7.0478356364930567e-03 -9.9211518602788269e-03 -5.3776791807446378e-20)	(1.1476415200067391e-03 4.9211450939199266e-04 1.1360378938690297e-19)
518                     	airfoil	(-7.0568582307819830e-03 -9.9334223608508361e-03 -5.3809248621827724e-20)	(1.1488778146104244e-03 4.9270710332500643e-04 1.1367751573750136e-19)
