/*--------------------------------*- C++ -*----------------------------------*\
| =========                 |                                                 |
| \\      /  F ield         | OpenFOAM: The Open Source CFD Toolbox           |
|  \\    /   O peration     | Version:  2006                                  |
|   \\  /    A nd           | Website:  www.openfoam.com                      |
|    \\/     M anipulation  |                                                 |
\*---------------------------------------------------------------------------*/
FoamFile
{
    version     2.0;
    format      ascii;
    class       volScalarField;
    location    "518";
    object      k;
}
// * * * * * * * * * * * * * * * * * * * * * * * * * * * * * * * * * * * * * //

dimensions      [0 2 -2 0 0 0 0];


internalField   nonuniform List<scalar> 
28643
(
3.56286690667941e-06
3.866100565160805e-06
4.310200829569282e-06
4.198735396170931e-06
4.511712701364747e-06
3.055005522790166e-05
4.560810842065669e-06
4.690192604441188e-06
3.182222450416235e-05
0.000124623764589529
4.945179489500339e-06
4.856258869161309e-06
3.287917798349907e-05
0.0001296356686819007
0.0003443980182097286
5.335425003259473e-06
5.021245761527262e-06
3.380436178210727e-05
0.0001337561473533203
0.0003567807984974637
0.0006983134193830692
5.735086692008244e-06
5.188941455555237e-06
3.469477107143847e-05
0.0001373206401459118
0.0003666438668889105
0.0007181287355302151
0.001109811517728917
6.126768879518523e-06
5.377033429600102e-06
3.560029812762743e-05
0.0001407200846025397
0.0003748839579510748
0.0007327757190516336
0.001132613146481535
0.001510564245841333
6.519349440340764e-06
5.577516456127157e-06
3.665529949798033e-05
0.0001441724092402035
0.000382550817626276
0.0007439727018283005
0.001147153918288246
0.00153234598888004
0.001883281568768174
6.906743367101002e-06
5.801740477937029e-06
3.781859868775922e-05
0.0001482016658316382
0.0003902946771815592
0.0007537678648554268
0.001155986546769712
0.001542528137823672
0.001902097305241008
0.002231897710350738
7.290233183789062e-06
6.044088877928647e-06
3.91678615311555e-05
0.0001526669950908705
0.0003994198484566561
0.0007635913462606254
0.001162289544412689
0.001544364314007339
0.001905730756194439
0.002247188157029939
0.002563072682581936
7.669965379184658e-06
6.304573095640161e-06
4.066684181566329e-05
0.0001578576459088477
0.0004096523541209389
0.0007757083530607006
0.001168533475774626
0.001542180577336205
0.001897944947730504
0.002243614993541774
0.00257493294306095
0.00288213509296256
8.046616400782596e-06
6.581515145896932e-06
4.231380813157741e-05
0.0001636382384349341
0.0004216466920018098
0.0007898535642913864
0.001177896007971101
0.001539655754336111
0.00188413949017708
0.002225249474267471
0.002564314822618686
0.002890882811671037
0.003192972032857651
8.420430099326773e-06
6.87320591872109e-06
4.409533680363821e-05
0.0001699964702083023
0.0004350804744303299
0.0008070039889917153
0.001190372019278103
0.001540924080706746
0.001869260382374838
0.002198406112927286
0.002535437296959521
0.002873702342570978
0.003198948199971048
0.003498441149975103
8.78752844040854e-06
7.177623115593739e-06
4.599712503807765e-05
0.0001768765019229027
0.000449892799110434
0.0008266406304481681
0.00120712300304186
0.001546469905150907
0.001858521209113069
0.002169221263039055
0.002495353608618411
0.002834854339686521
0.003175747433477935
0.003501936849315036
0.00380069639066009
9.143103296524893e-06
7.487508304428767e-06
4.800291653626718e-05
0.0001842188831654518
0.0004659230227893211
0.000848592198230892
0.00122751206961102
0.00155764107612177
0.001853088240635048
0.002144036574782075
0.002451236042196649
0.002781987127613895
0.003127608729169409
0.003473208536832756
0.003801936072945369
0.004101396410951851
9.494548180075154e-06
7.793956112452944e-06
5.006021891393675e-05
0.000191957237344403
0.0004830031079050248
0.000872534161860255
0.001251229328118922
0.001573774274463272
0.001854640482456769
0.002124816277602372
0.00241049154238794
0.002723150032866729
0.003062674784926576
0.003416436660570384
0.00376809145956905
0.00410054350598822
0.00440183465311499
9.841286541160836e-06
8.105881681218314e-06
5.210292711580777e-05
0.0001998878863920098
0.0005009531159436994
0.0008981353861034373
0.001277772502133594
0.001594436531454008
0.001862606275629536
0.002113744810118625
0.002375895928507023
0.002666691148230944
0.002989745951758208
0.003340191673613809
0.00370326213442476
0.00406191299339002
0.004399004884348664
0.004703021359099039
1.018497314565864e-05
8.422384918789063e-06
5.419264999440126e-05
0.0002077491616116757
0.0005192811362169024
0.0009250585968642415
0.001306635382061408
0.001618954611133375
0.001876498260583641
0.002110486237126172
0.002350246693475794
0.002616136817012399
0.002917979057585574
0.003253937131492219
0.003616401153900851
0.003989508951260054
0.004355850885622437
0.004698298275543045
0.005005735555915566
1.051990795597551e-05
8.742379085765615e-06
5.632486249011295e-05
0.00021577616573161
0.0005373499778000098
0.0009525063404898251
0.001337320511361564
0.001646643601897988
0.001895507844257607
0.002114616975768604
0.002333565437946078
0.002574914802915368
0.002851562504651685
0.003167525617578274
0.003517578418644989
0.003892633580796693
0.004276271132182657
0.004650831639311904
0.00499918658822278
0.005310557186693029
1.085568433212222e-05
9.057631488927303e-06
5.848717745523364e-05
0.0002239589942047296
0.0005557034973876554
0.0009794410015725175
0.001368816412724224
0.001676840919476615
0.001918780622800886
0.002125274722018487
0.002325619064233533
0.00254346722607161
0.00279450784509939
0.003085724149622486
0.003417255058180688
0.00378192712928134
0.004169888405537113
0.004564407899116422
0.004947583417472519
0.005302250178312723
0.005617885175300596
1.118610814963093e-05
9.379720516823811e-06
6.062240138813938e-05
0.0002322389532644729
0.0005743403763180127
0.001006686622978681
0.00139981083061476
0.001708384850191169
0.001945483305939421
0.002141481346608923
0.002325601853588543
0.002521842576849675
0.002747682916764499
0.003013055284354951
0.003320712431008351
0.003668395689423569
0.004047890323277363
0.00444894283578763
0.004854598376253086
0.005246668304004582
0.00560790593225065
0.005927944559970252
1.151762905914951e-05
9.702412101719074e-06
6.281058883136107e-05
0.0002404045710596085
0.0005930853788126576
0.001034283603928697
0.001431223139935153
0.00173980368222788
0.001974510530414089
0.002162250821102584
0.002332493635812763
0.002509393449598513
0.002711456168654649
0.002950781759204758
0.003232910228388794
0.003557790934235686
0.003921782553109857
0.004316155324134184
0.004730411240151526
0.005147373539490526
0.005548501260255568
0.005916416323430808
0.006240784314303676
1.184825849030799e-05
1.003147606027429e-05
6.501036136412885e-05
0.0002487554083816498
0.0006114777382013965
0.001061880457993099
0.001463136552690947
0.001771928225705431
0.002004560224300002
0.002186286417665942
0.002345207020740035
0.002505150611530305
0.002685404547283854
0.002899586463529518
0.00315546224377
0.003455447399316243
0.003797760275459332
0.004178019137757514
0.004587259108154267
0.005014778360172875
0.005443134590465307
0.005853359777800132
0.006227890185185978
0.006556266369100079
1.217755298115867e-05
1.036456150234733e-05
6.725896207613719e-05
0.0002571419248194345
0.0006301823177950694
0.001088834218529354
0.001495007037084308
0.001804833361081829
0.002035744338705398
0.002212403806417573
0.002362301920267046
0.002507998496134289
0.002668686456147686
0.002859295483838264
0.003089335077150414
0.00336328749809374
0.003681485167825934
0.004041158357981307
0.004437562403112418
0.004861625042723326
0.005302417340440752
0.005742162201739227
0.006161386166586818
0.006542275923851411
0.006874045698808096
1.250475639175583e-05
1.070101702254124e-05
6.954115293786028e-05
0.0002656961754296668
0.0006488867125766845
0.001116106351284177
0.001526162449297293
0.001837813242815424
0.002068061070571432
0.002240636452131222
0.002382368530504514
0.002516416760103215
0.002660231340507141
0.002829240534572636
0.003034597085448751
0.003282522336353054
0.003575154226763824
0.00391152830548849
0.004288368112237858
0.004700767208132926
0.005139582124719828
0.005593598690600693
0.006044619143651333
0.006472583438348571
0.006859347123825205
0.007193520828487106
1.283116941675472e-05
1.103958586847415e-05
7.185236537973927e-05
0.0002743657504320226
0.0006678559376152378
0.001143277885974003
0.001557635359378668
0.001870746426691052
0.002100694746257075
0.002270555223223855
0.002405327683205401
0.002528877647035819
0.00265850941316027
0.002808451479508463
0.002990767960774995
0.003213438037787465
0.003480185774405469
0.003791576348786769
0.00414590320762825
0.004539673862474554
0.004967908496182241
0.00542137376072038
0.005888492675417454
0.006350547204496439
0.006786804862857332
0.007178660044309565
0.007513843592718641
1.315488020675833e-05
1.138020718033909e-05
7.418365638498084e-05
0.0002831328069792833
0.0006869872475783309
0.001170684374954526
0.00158898337619054
0.001904059875372866
0.002133561139905958
0.002301255060391659
0.002430780828415096
0.002545184136369609
0.002661965989211831
0.002795452997701571
0.00295700850820547
0.003155734478154703
0.003397053277088005
0.003682897597029107
0.004012850524875994
0.0043848310986598
0.004795289957222391
0.005239191401877971
0.005707160206680685
0.0061871668263659
0.006659858875248431
0.007103716973112581
0.007499572078460632
0.007833849973121802
1.347895230449637e-05
1.172224947753057e-05
7.653238673963221e-05
0.0002919637693214513
0.0007062392256629134
0.001198201014057478
0.001620526892211484
0.001937292135839628
0.002166903280224929
0.002332538883386404
0.002457998652905042
0.002564795235199541
0.002670302750300231
0.002788739935426265
0.002931944345113707
0.00310871136102402
0.003325616847906863
0.003586123858342827
0.003890959629647283
0.004239149800955484
0.004628466147665268
0.005055373638140534
0.005514753815721244
0.005997016053571758
0.006489578675593562
0.006972304072377951
0.007422824993282751
0.007821182800695695
0.008151958875326253
1.380208214047149e-05
1.206747835165717e-05
7.88967447418492e-05
0.0003008441064736795
0.0007255382967654183
0.001225767653055206
0.001652148282197495
0.001970695812339736
0.002200326442684054
0.002364502799002687
0.002486333290791745
0.002586777679026493
0.002682838034720884
0.002787941379376095
0.002914176458177856
0.003071121057619597
0.00326530745414401
0.003501251650091428
0.003780996649658147
0.004104519318013048
0.004470574697036019
0.004876913731809779
0.005320029207684086
0.005794664264966203
0.006290923854402958
0.006795545117652898
0.007287498903818036
0.007743422546262467
0.008142243641272784
0.008466117648793296
1.4123960796982e-05
1.241425010074904e-05
8.128657302953105e-05
0.0003097724666219746
0.000744836486440086
0.001253281191173987
0.001683777995446595
0.002004175791620664
0.002233965604749216
0.002396857844637699
0.002515709338132566
0.002610617787304861
0.002698534211755811
0.002792269441269122
0.002903292656651714
0.003041704650709252
0.003215012180087015
0.003427827463975791
0.003683071968357743
0.003981822119904339
0.004323636476448859
0.004707179349235228
0.005130237323054284
0.005589306409370193
0.00607891578923883
0.006588745153652774
0.007104772819591612
0.007604881665599688
0.008064511514514826
0.008461115197280652
0.008773707564465185
1.444460693653812e-05
1.276252952703313e-05
8.369099233526555e-05
0.0003187808713204554
0.0007641489918091407
0.001280640289529331
0.001715300877001234
0.002037658480876984
0.002267731040175939
0.002429583740991542
0.002545898586808134
0.002636048928579899
0.00271689338488083
0.002800638856938602
0.002898445280565252
0.003020035124966407
0.003173625001767222
0.003364868582738881
0.003596829546670563
0.003871263778875217
0.004188638121114452
0.004548319833392723
0.004948983054726768
0.005388458523259353
0.005863195108095553
0.006367398672454601
0.006890252440294379
0.007416818920829002
0.007923641189138507
0.008384770359380371
0.008775688680563835
0.009073777104395681
1.476475185880617e-05
1.311211522113791e-05
8.611019541060916e-05
0.0003278313438716539
0.000783529651528218
0.001307902688422346
0.001746550469054104
0.002071029682599099
0.002301543048286762
0.002462553979895754
0.002576718060368676
0.002662915589739022
0.002737475153104273
0.002812520020224554
0.002898539753565011
0.003005249690001995
0.003140722032389979
0.003311418428374335
0.003521405454544042
0.003772568965868527
0.004065866397417261
0.004401418814058125
0.004778545242917538
0.005195973039104243
0.005651552628548558
0.006141599251662948
0.006659932350993389
0.007195093338682251
0.007731025094620888
0.008242693667844204
0.008702486661606596
0.009083279492308815
0.009367481717094221
1.508259627543894e-05
1.34628478878424e-05
8.854281640717904e-05
0.0003369250109298163
0.0008029044202329486
0.00133512006591606
0.001777636756806994
0.002104051208337781
0.002335294795705496
0.002495673114075861
0.002607988356626974
0.002690894906279421
0.0027599609661702
0.002827322346727071
0.00290300402214544
0.002996272472654609
0.003115460206211775
0.003267065361830977
0.003455978641349039
0.003684978467505762
0.003955112995168534
0.004266834814265446
0.004620101454955425
0.005014262652152897
0.005448101709588522
0.005919424236754008
0.006424368609647789
0.006956232690756858
0.007502730247274347
0.008046500611252288
0.008560625622724444
0.009015462737618447
0.009380889674067415
0.009649071284769783
1.539960161042411e-05
1.381361585892701e-05
9.09866402197071e-05
0.0003460572589312826
0.0008222774652785331
0.001362201230076992
0.001808588598510265
0.002136883504179214
0.002368682319095155
0.002528839423819716
0.002639584346248743
0.002719639644719603
0.002784024217776827
0.0028446079243106
0.00291112843339104
0.002992495802180895
0.003096801788755152
0.003231008277213819
0.003400151943455447
0.003607787723925493
0.003855709488886064
0.004144416487012766
0.004474076547819347
0.004844599128772493
0.005255396019740705
0.00570526412593099
0.006191938308291681
0.006711268243121988
0.007255855862465356
0.00781242872180894
0.008362073021994845
0.008875610506703168
0.00932095175412909
0.009669359824177133
0.009901441411181398
1.571522349247206e-05
1.416595947395588e-05
9.343525150159263e-05
0.0003552183759778011
0.0008416391835524643
0.001389157387305912
0.001839312940486399
0.002169525813566037
0.002401897696167086
0.002561709744870862
0.002671395403479603
0.002748975016596134
0.002809292680124002
0.002864028468770626
0.002922390420588335
0.002993127144010924
0.003084116677405338
0.003202258858119763
0.003353176593664422
0.003540611927427492
0.00376704748413789
0.004033573832659125
0.004340369597056219
0.004687471618864029
0.005074804501581307
0.005501823194605493
0.005967328489523319
0.006468891819652117
0.00700192625541346
0.007558190800367328
0.008123215784263527
0.008676214066974859
0.009185356564389915
0.00961552011299761
0.009947082220312087
0.01010645223816929
1.603030922091472e-05
1.451870050106486e-05
9.589889118938486e-05
0.0003643871143586767
0.0008609642594698024
0.0014159756415535
0.001869828347115842
0.002201889833783703
0.002434907133416384
0.002594470557500821
0.002703074352691878
0.002778758029706579
0.002835522128353287
0.002885151387851825
0.002936406343821535
0.002997587471467817
0.003076565588763392
0.003180177213342898
0.0033141176469671
0.003482755895232148
0.00368875049204497
0.003933775569117896
0.004218458869808573
0.004542826187890904
0.004906881365720577
0.005310572897740884
0.005753406216985338
0.006234109774501181
0.006749964666803718
0.007295828798752901
0.00786242315944804
0.008433814626315657
0.008986997068696042
0.009486993195002602
0.00989851558841804
0.01019837012233213
0.01025149332893735
1.634440273947547e-05
1.487193117740327e-05
9.836981908007595e-05
0.0003735990647203509
0.0008802176189970374
0.001442613017741228
0.001900118907588238
0.002234000550927124
0.002467623973547409
0.002627050168193329
0.002734762580543016
0.002808628192520076
0.002862509285018725
0.002907658620862041
0.002952672689694277
0.003005452583246436
0.0030735358767308
0.003163909227561447
0.003282334499999171
0.003433336371578841
0.00362017221905607
0.003844649224553576
0.00410787366645736
0.004410201460606895
0.004751618852994511
0.005132135647587338
0.005551752897694416
0.006009966904471815
0.006505323409755329
0.007034716855554541
0.007592288754429639
0.008167477679336338
0.008742611913999922
0.009291993966046054
0.009776920683235619
0.01016860677913694
0.01040382190866988
0.01033027768286756
1.665560167165109e-05
1.522589882073503e-05
0.000100847486340474
0.0003828290157067095
0.0008994667075196381
0.001469038720964
0.00193012348870484
0.002265839734375951
0.002500078305158077
0.002659356025058272
0.002766341571285883
0.002838668224650502
0.002889920005996569
0.002931279952762727
0.002970796698736135
0.003016151510909101
0.003074565219327967
0.003152825728562502
0.003256982555665347
0.003391716576610868
0.003560475742463566
0.003765589612759198
0.004008242033971742
0.004289173921705884
0.004608610177392203
0.004966551219876106
0.005363064379343982
0.005798164110340152
0.006271243084326836
0.006780583964817259
0.007322560833439098
0.007890393904055371
0.008471993371730204
0.009047565437119232
0.009588140014607813
0.01005264060191203
0.01041332401028002
0.01054839304767711
0.01034048149723395
1.696646902959274e-05
1.557936395232264e-05
0.0001033345554399699
0.000392073320509347
0.0009186652420472909
0.001495335763933481
0.001959824272645495
0.002297329346977667
0.002532250281086041
0.002691420085501002
0.002797703144909367
0.002868728272255533
0.002917766080615319
0.002955589831976637
0.002990439417019833
0.003029220867883414
0.003079026610325279
0.003146433853619935
0.00323742789652458
0.003357077525257455
0.003509028953060981
0.003695799030479349
0.003918991115961978
0.004179369862910674
0.004477468740395162
0.004813463529755827
0.005187431175925027
0.005599477890087353
0.006049555947366734
0.006536888410713987
0.007059380443443933
0.00761271492194656
0.008188988657778479
0.008774241461033451
0.009346078720198929
0.009871652275940742
0.01031232921347233
0.01061374152202461
0.01062372587109994
0.01028133761171628
1.727651916179549e-05
1.593334757349939e-05
0.0001058243922319052
0.0004013426865712428
0.0009378036161976084
0.001521447612669087
0.001989303833475181
0.00232846185418254
0.002564046748717142
0.002723221075706106
0.002828874788329418
0.002898674161579433
0.002945822261108791
0.002980605658246837
0.003011118046607951
0.003044257016018133
0.003086394814848069
0.00314406559603744
0.003223156293912135
0.00332878709539694
0.003465046584732778
0.00363464827996144
0.003839354968103756
0.004080240354259657
0.004357818208616535
0.004672515665185302
0.005024545751539411
0.005414054323087185
0.005841128367524432
0.006305608372236994
0.006806450038132969
0.007341033902713585
0.007904190186586091
0.008486600547591946
0.009072010231460472
0.009634930349072389
0.01013816237548041
0.01054715393448503
0.0107531749045789
0.01062629275802952
0.01015261395788178
1.75859036400293e-05
1.628795987093395e-05
0.0001083212327413192
0.0004106173316804621
0.0009569059131018131
0.001547361188041451
0.002018502167170416
0.002359312728599704
0.002595465314990739
0.002754654164760916
0.002859831955777742
0.002928519314621948
0.002973918512444923
0.00300609154546211
0.003032826286455151
0.003060742192607032
0.003096210477740397
0.003145145934913452
0.003213474237378388
0.003306318115226573
0.003427900885437313
0.003581387842051193
0.003768704385236368
0.003991044388039371
0.004249126282871607
0.004543329108171644
0.004874076388819786
0.005241633858619109
0.00564616831580938
0.006087711512127452
0.0065659115743476
0.007079329650563956
0.007624688384281815
0.008195724768191368
0.008781335204248867
0.009362543841305021
0.009910141577869108
0.01038530671109664
0.01073902633032052
0.01082117883465634
0.01055480864441863
0.009954976029073973
1.789394131570154e-05
1.664274462357896e-05
0.000110827413937937
0.0004199075312306871
0.0009759421634894621
0.001573112323704208
0.002047403499394294
0.002389822703689098
0.002626571215013291
0.002785718731064706
0.00289046113587944
0.002958231354155525
0.003002043519689717
0.003031832902643334
0.003055301975810442
0.003078623334225624
0.003107934475974205
0.003149171777305526
0.003207770364899635
0.003288965154620821
0.003397057682390534
0.003535393784604001
0.003706323152568066
0.003911149505386705
0.004150671185246467
0.00442538234307705
0.004735644076127852
0.005081908066320644
0.005464465277842704
0.00588347552751022
0.00633884799552591
0.006829929841875943
0.007354777551860638
0.007909251745913852
0.008485687854315749
0.009070824413386544
0.009642419508150941
0.01016680746606348
0.01060754486379096
0.01086985579264997
0.01081282111897733
0.0104088334770719
0.009691262190766515
1.820130392429509e-05
1.699734423551682e-05
0.0001133393443724236
0.0004292255537379463
0.0009949213375576678
0.00159867572139216
0.002076049090241471
0.002419972914420718
0.00265730574360605
0.002816464553744548
0.002920766547930956
0.00298768748452847
0.003030150556371779
0.003057782011662259
0.003078285261368066
0.003097606668744996
0.003121453637444716
0.003155591023855695
0.003205510653788845
0.003276093388219607
0.003371810058046963
0.003496128248730031
0.003651589028313109
0.003839867964597025
0.004061814433699604
0.004317968470580084
0.004608733739272393
0.004934500234540323
0.005295734568220896
0.005692741691030062
0.006125616184588174
0.006594049793876244
0.007096998080632947
0.007631838881050415
0.008193307503340488
0.008772036452219842
0.009352113411833207
0.009907402010773537
0.01040117057229355
0.0107876609107995
0.01092724088054682
0.01072620453072988
0.01018892403934236
0.00936804664162612
1.850847031489539e-05
1.735308165384322e-05
0.0001158553717700176
0.0004385580539565836
0.001013875057438078
0.001624048357169191
0.00210442667074092
0.002449806181734256
0.002687645530467968
0.002846831195832539
0.002950773628646166
0.00301690067962585
0.003058103185649641
0.003083870037821433
0.003101687748225184
0.003117387593607434
0.003136442121361643
0.003164226051667218
0.003206135701627883
0.0032671496371072
0.003351510615892358
0.003462889662183175
0.003603961276542978
0.003776576203291993
0.00398189068008918
0.004220440887850015
0.004492650356396441
0.004798898838437993
0.005139605655755532
0.005515251883820601
0.005926113949321296
0.006372136903807652
0.006852718589075996
0.007366272490268954
0.007909272170428673
0.008475079084601409
0.009052212342935051
0.009621522497892714
0.01015233326958465
0.01060773491353261
0.01090650184945881
0.01090491148068404
0.01056076218368151
0.00989792676270806
0.008996831251239115
1.881522836116235e-05
1.770900495810822e-05
0.0001183850927740657
0.0004479017935657756
0.001032773817883987
0.001649279424816197
0.002132516109123673
0.00247932528207677
0.002717631727700348
0.002876788970210948
0.00298041456021707
0.003045868622909438
0.00308591158630379
0.003109937989428819
0.003125414488911988
0.003137833811251328
0.003152553009019027
0.003174721334440983
0.003209405900598352
0.003261571491059319
0.003335596463337941
0.003435026167928602
0.003562747282117839
0.003720729847013244
0.003910272188554833
0.004132150594301896
0.004386738060767564
0.004674419059191773
0.00499556898877197
0.005350646663797229
0.005740114896530963
0.00616415264984219
0.006622490573817722
0.00711410019359504
0.007636654805641407
0.008185519938013792
0.008752336022278824
0.009323012140876863
0.009874548758603469
0.01037203176671482
0.01077187493177754
0.01094998216862644
0.01080044864613048
0.01031715940131412
0.009542802687739252
0.008593983874437808
1.912087706672379e-05
1.806608915425499e-05
0.0001209209281576138
0.0004572896908890232
0.001051620610569428
0.001674325004193102
0.002160374775249705
0.002508491480735695
0.002747282458605245
0.002906374731330422
0.003009651006237853
0.003074506865522118
0.003113543782984249
0.003135998288198475
0.003149281397908474
0.003158820802049988
0.003169608715459781
0.003186691988322404
0.003214940115387168
0.00325906400586111
0.003323505502325165
0.003411971715940197
0.003527295976271688
0.003671646266812562
0.003846409155569624
0.004052463135151159
0.004290358572969871
0.004560395452592134
0.004862949507788377
0.005198418082286734
0.005567276686517382
0.005969910058304178
0.00640634936422581
0.00687599397497355
0.007377213609682752
0.00790676808088963
0.008458623179870719
0.009022272884835652
0.009580493930726812
0.01010572145902474
0.01056045906474137
0.01087459695053893
0.01091061596902656
0.0106133048657085
0.009998611478197313
0.009136089263970986
0.008178583762227543
1.94273865454201e-05
1.842271288826219e-05
0.0001234711653341001
0.0004666958471978301
0.001070472493403833
0.001699205493859537
0.002187947670804892
0.002537365803412774
0.002776542716761549
0.002935620140151548
0.00303851296218063
0.003102765524213352
0.003140909952621956
0.003162009978443751
0.003173262514059899
0.003180138553248685
0.00318745281617472
0.003199915979938189
0.003222321485686405
0.003259225475412453
0.003314896038927687
0.003393166847980134
0.003497041862460631
0.003628677905507116
0.003789628254204228
0.00398082129522418
0.004202868979941248
0.004456195884033871
0.004741072811392467
0.005057901621578874
0.005407093704460928
0.00578909103869316
0.006204157816191463
0.006652077043250324
0.007131760939619388
0.007640831017552938
0.008174878385705953
0.008726108863196441
0.009281422841785006
0.009819837988105509
0.01030874875270254
0.01070538776642897
0.01090047065266227
0.01078553554823124
0.01034452378547644
0.009612876634933286
0.008695932293881357
0.007767716072045445
1.973317492796048e-05
1.878153691834106e-05
0.0001260245486980925
0.0004761512410576538
0.001089281738472617
0.001723982253742152
0.002215274106613206
0.00256588395881144
0.002805471524237587
0.002964458267812498
0.003067041820125546
0.003130664699052368
0.003167945816174406
0.003187846416546495
0.00319731950465476
0.00320173021436926
0.00320585036023679
0.003214204242927108
0.003231286594496094
0.00326161399692649
0.00330935092792875
0.003378231861042653
0.003471429356315211
0.003591261182923703
0.003739286261975013
0.003916559328764148
0.004123702722709922
0.004361167834930883
0.004629309337900124
0.004928415303354522
0.005258913974966156
0.005621194116985577
0.006015630521648837
0.006442275607273635
0.006900526847014659
0.007388685774044128
0.007903405631883692
0.008438790121224502
0.008984910832485468
0.009525522104304579
0.01003522401673033
0.01047702915040771
0.0107880749498244
0.01084069511275156
0.01057438340928695
0.009998080669471507
0.00917387961554102
0.008243688039393579
0.007369189930816754
2.003868796804226e-05
1.914052342952512e-05
0.0001285995010658698
0.0004856183601926907
0.001108109301203088
0.001748597878403669
0.002242407114478688
0.002594102407016699
0.002833996792579974
0.002992941687423712
0.00309516353150686
0.003158249855754007
0.003194657916187063
0.003213426283235174
0.003221323533905694
0.003223553457774545
0.003224716834120232
0.00322929906621383
0.003241614654431154
0.003265929644312503
0.003306410367417948
0.003366738790802926
0.003450048579533673
0.003558844572370979
0.003694821192965303
0.003859037882006651
0.004052199518441488
0.004274733983203553
0.004526996656845407
0.004809329907989273
0.005122050186438733
0.005465583194278593
0.00584027305522998
0.006246346761406893
0.006683517883540665
0.007150694403117024
0.00764537641547162
0.008162973941991961
0.008695774097458983
0.009231239662565735
0.009749387199032863
0.01021970078708659
0.01059974447248493
0.01079206849014657
0.01069192755933123
0.01027890040867819
0.009583019388865037
0.008701702060377082
0.00779868727351441
0.006988282421052686
2.034339234901803e-05
1.950036981486024e-05
0.0001311825853900692
0.0004951603657713075
0.001126888672478669
0.001773130315070891
0.002269286510605753
0.002622061498214534
0.002862188249020396
0.003020991644701204
0.003122921192146954
0.003185444167111734
0.003221089040958096
0.003238739371686535
0.003245173775213198
0.003245467108906129
0.003243996848524481
0.0032450881383809
0.003253027963345347
0.003271922354721141
0.00330574393648183
0.003358216471575811
0.0034324643116712
0.003530994373977554
0.003655684887609403
0.003807695258243963
0.003987722714814699
0.004196237355513407
0.004433545739182151
0.004699973323298831
0.00499587239305539
0.005321568608099096
0.005677470002414074
0.006063807284946484
0.006480545070936695
0.00692696479618536
0.007401317649017114
0.007900062853500558
0.008417090339078059
0.008942443875799145
0.009460460046649362
0.00994680087627124
0.01036589962761669
0.01065826293092324
0.01070762743904804
0.01045421205109692
0.009904291204757651
0.009115138333308454
0.008219742813146219
0.007370471641283145
0.006633420292245679
2.064469793335875e-05
1.985953546042622e-05
0.0001337794869571828
0.0005047324997942628
0.00114573295526897
0.001797503958776475
0.002295993775451291
0.002649700353760808
0.002890075375015538
0.00304868646230602
0.003150230205945578
0.00321227912955462
0.003247162565896972
0.00326381960959501
0.003268839609444014
0.003267349962600609
0.00326353345612812
0.003261496163501154
0.003265385059018839
0.0032792973710831
0.003307075790297965
0.003352310331527138
0.003418199423075308
0.003507270498117075
0.003621424641158819
0.003761985386170167
0.003929709162856137
0.004125042536177495
0.004348301043800384
0.004599744589973621
0.004879699773401608
0.005188520051675985
0.005526533223611084
0.005894069005957299
0.006291142039944516
0.006717375117727013
0.007171464008825409
0.007650790667963148
0.008150537780038483
0.008662710116900087
0.009174636204277366
0.009666968732744785
0.01011041550640404
0.01046302723834337
0.01063558749134682
0.01053130878664769
0.0101304021753087
0.009461459491774382
0.008616657511659354
0.007748709919426602
0.006963545329096838
0.006312972016847914
2.094508709990621e-05
2.021001812618089e-05
0.0001363793716588605
0.0005143577199348251
0.001164561154989874
0.001821851012740578
0.002322458060086696
0.002677098038103476