/*--------------------------------*- C++ -*----------------------------------*\
| =========                 |                                                 |
| \\      /  F ield         | OpenFOAM: The Open Source CFD Toolbox           |
|  \\    /   O peration     | Version:  2006                                  |
|   \\  /    A nd           | Website:  www.openfoam.com                      |
|    \\/     M anipulation  |                                                 |
\*---------------------------------------------------------------------------*/
FoamFile
{
    version     2.0;
    format      ascii;
    class       volScalarField;
    location    "518";
    object      nut;
}
// * * * * * * * * * * * * * * * * * * * * * * * * * * * * * * * * * * * * * //

dimensions      [0 2 -1 0 0 0 0];


internalField   nonuniform List<scalar> 
28643
(
3.356734362157357e-12
3.642217808424544e-12
2.483559748348808e-11
3.955419500530509e-12
2.59928894122094e-11
5.588104841915329e-10
4.296507435199718e-12
2.701733224203176e-11
5.815669423482737e-10
5.118206118981053e-09
4.658549051310791e-12
2.797106319541945e-11
6.003048394682933e-10
5.305739212727029e-09
2.572713133177806e-08
5.026107315399297e-12
2.891789446868371e-11
6.165802579990043e-10
5.453244479840891e-09
2.643450103460854e-08
8.365940676106085e-08
5.402629607232235e-12
2.987997652247481e-11
6.321429521031343e-10
5.575081004072905e-09
2.691136233516892e-08
8.486628854980531e-08
1.986868078935873e-07
5.771717624394851e-12
3.095994200968926e-11
6.479350874540733e-10
5.687643397637448e-09
2.723245526185841e-08
8.5223727512096e-08
1.991201036622264e-07
3.846422744400925e-07
6.141743102450375e-12
3.211161149854657e-11
6.664261502563476e-10
5.800956504066304e-09
2.748603662000742e-08
8.498988209114644e-08
1.973509078306635e-07
3.821367775391779e-07
6.526916590185584e-07
6.506957249136432e-12
3.340034385379634e-11
6.868772905135769e-10
5.936672670569668e-09
2.773486123632552e-08
8.448410260336136e-08
1.940189887640541e-07
3.750874503797051e-07
6.451017924176263e-07
1.011699126553528e-06
6.868559422161051e-12
3.479367131124998e-11
7.106913123735908e-10
6.089644213007472e-09
2.808059728992594e-08
8.396118117508198e-08
1.899614892065159e-07
3.647203215432051e-07
6.294823626796773e-07
9.975090941990323e-07
1.468523019476798e-06
7.22672555455867e-12
3.629159507784727e-11
7.372042159272859e-10
6.271196704516713e-09
2.850966405821094e-08
8.373450588120508e-08
1.858947151904164e-07
3.527496736998636e-07
6.077671800118388e-07
9.706430992408528e-07
1.447068308009181e-06
2.029056576710544e-06
7.582108922329244e-12
3.788467290665646e-11
7.66377140811139e-10
6.475819155060902e-09
2.906716035319321e-08
8.380152287137017e-08
1.825670887295683e-07
3.40723133521147e-07
5.828681836070876e-07
9.337481193149765e-07
1.407198292819201e-06
2.00053873207109e-06
2.699049875130111e-06
7.934948723387329e-12
3.956315304045189e-11
7.979664655559207e-10
6.70280918842616e-09
2.972923083607639e-08
8.427244980222249e-08
1.800497803463003e-07
3.301706366415788e-07
5.57551789493165e-07
8.911319853020231e-07
1.35219443468476e-06
1.946848713543296e-06
2.664518051471351e-06
3.484469859034414e-06
8.281600711579883e-12
4.131545300052421e-11
8.317098358478234e-10
6.949811856584807e-09
3.048962458813437e-08
8.508055807745773e-08
1.785587150894737e-07
3.213568599574271e-07
5.345819812387432e-07
8.470898891787039e-07
1.287832648592947e-06
1.871784688510272e-06
2.597082854031934e-06
3.445843180604166e-06
4.391538189973075e-06
8.61754341981247e-12
4.309990324819669e-11
8.673102165980657e-10
7.214314626558546e-09
3.13354545726405e-08
8.619626614410226e-08
1.779493700601383e-07
3.146970083663169e-07
5.146128387702921e-07
8.060962705687572e-07
1.220129329272714e-06
1.782577002639151e-06
2.500930796407419e-06
3.365609818775594e-06
4.351681906981128e-06
5.426593765035542e-06
8.94975535729338e-12
4.486539634843488e-11
9.038239832457744e-10
7.493572410354801e-09
3.225336451234763e-08
8.757357851410525e-08
1.781333453011863e-07
3.099385021583926e-07
4.984521413265199e-07
7.694439711147807e-07
1.155690803917925e-06
1.687057527902096e-06
2.384685223785663e-06
3.248218289371373e-06
4.260508611388322e-06
5.389442719575195e-06
6.595861918972313e-06
9.277704896226524e-12
4.666327112675861e-11
9.400711688780311e-10
7.779674737002806e-09
3.322960712877718e-08
8.916636735024834e-08
1.789896627994319e-07
3.068939115269056e-07
4.857567995303942e-07
7.386279805076339e-07
1.096695159841833e-06
1.594304797536625e-06
2.258028859455763e-06
3.103596980948221e-06
4.122609516259518e-06
5.290191352527967e-06
6.566582256576198e-06
7.905167126429645e-06
9.602964507535312e-12
4.848844150571494e-11
9.771553491647917e-10
8.062740015461017e-09
3.423056179043854e-08
9.092984156625676e-08
1.803989424013412e-07
3.05312050657097e-07
4.76230214543205e-07
7.133136261272888e-07
1.045671788454586e-06
1.507586175997792e-06
2.132786590013252e-06
2.943286928426517e-06
3.949111240149947e-06
5.133464540863297e-06
6.463254099469529e-06
7.89034838493243e-06
9.359604249585561e-06
9.920172654593157e-12
5.033475879093337e-11
1.014995334879487e-09
8.351691631093466e-09
3.521526113025995e-08
9.277164535434037e-08
1.822490764673078e-07
3.049427412804934e-07
4.694478041844673e-07
6.931499765856905e-07
1.002466058499828e-06
1.430807032699136e-06
2.013473380086495e-06
2.782093669131217e-06
3.753409615202285e-06
4.931462142401882e-06
6.290441333324823e-06
7.788254466404195e-06
9.367474586512635e-06
1.096317528909828e-05
1.023838885623228e-11
5.215496621057351e-11
1.053370668828132e-09
8.64608223843966e-09
3.621890179690359e-08
9.458216449067984e-08
1.843325935131122e-07
3.055525397272181e-07
4.649706185544367e-07
6.775411911805493e-07
9.667997836694247e-07
1.364198753198792e-06
1.90567413817037e-06
2.625910982894603e-06
3.553505430244691e-06
4.699426157675801e-06
6.061271784661178e-06
7.603313488788674e-06
9.273433397825965e-06
1.100383182739032e-05
1.271839761228813e-05
1.055178686927422e-11
5.401578220616541e-11
1.091260849554938e-09
8.943697131399778e-09
3.724049595635182e-08
9.644832575641166e-08
1.864020455712844e-07
3.063739182854886e-07
4.623819627827169e-07
6.658281340539398e-07
9.379723874878533e-07
1.30773169363511e-06
1.810210819068893e-06
2.48226578197526e-06
3.356798416283282e-06
4.458758163426357e-06
5.792819406627285e-06
7.34941332283871e-06
9.081724520029038e-06
1.092638785039708e-05
1.280404156040757e-05
1.462589234714096e-05
1.086646614057141e-11
5.588146321690686e-11
1.1300967221539e-09
9.236488709378351e-09
3.826911425769892e-08
9.836943243210731e-08
1.886380871791497e-07
3.063547013767844e-07
4.611635700232708e-07
6.573608376599589e-07
9.151224783613339e-07
1.260724842230433e-06
1.727492665017162e-06
2.352757557942193e-06
3.172991208991683e-06
4.218504853043156e-06
5.510085323356731e-06
7.045435862170686e-06
8.806803386503712e-06
1.073488656380366e-05
1.275369717298192e-05
1.477105489319823e-05
1.668396666306824e-05
1.118055498709398e-11
5.778534022429647e-11
1.169146085947457e-09
9.53571831105619e-09
3.927310978123693e-08
1.003122268174968e-07
1.910438980113622e-07
3.068683234090761e-07
4.596520119353316e-07
6.513641440197455e-07
8.973502117821314e-07
1.222187667563175e-06
1.65701580290713e-06
2.238414508810958e-06
3.004632113564011e-06
3.99076552529427e-06
5.223929600924086e-06
6.72017080198419e-06
8.469320122615436e-06
1.044413286555147e-05
1.257122648850938e-05
1.476050604932401e-05
1.690570675586184e-05
1.888821015459424e-05
1.149364940028421e-11
5.971392974109779e-11
1.209072849554197e-09
9.835955337133671e-09
4.029539390848103e-08
1.021907733950182e-07
1.935406890101195e-07
3.079828527110295e-07
4.578075934989651e-07
6.471531761543776e-07
8.835953383134907e-07
1.190999978601484e-06
1.59777669449979e-06
2.139074535429637e-06
2.853529141496022e-06
3.779203758701808e-06
4.949069301625923e-06
6.386488739914259e-06
8.102025462215333e-06
1.007648239705929e-05
1.227153926703175e-05
1.459798109562524e-05
1.695006933310289e-05
1.920625956456521e-05
2.12311330249734e-05
1.180507906301917e-11
6.166362336862339e-11
1.249604224970392e-09
1.014203773214493e-08
4.131794207224236e-08
1.041118400078557e-07
1.955240543299986e-07
3.09543144326417e-07
4.570710025881463e-07
6.446603955358888e-07
8.729363816680709e-07
1.165825209730293e-06
1.548509082786327e-06
2.053859299959855e-06
2.720016875471223e-06
3.586552490352433e-06
4.69045790500203e-06
6.061954582153911e-06
7.7200295847765e-06
9.668794030450819e-06
1.187860281614732e-05
1.429822209956546e-05
1.682074466002025e-05
1.9323268628471e-05
2.166795796602912e-05
2.370171719135969e-05
1.211609618603867e-11
6.3627503656228e-11
1.290663007070226e-09
1.045194522966434e-08
4.235637137291774e-08
1.060407679374372e-07
1.976249840072846e-07
3.11300527454263e-07
4.568941618505444e-07
6.432871170415612e-07
8.651359286711737e-07
1.145513524740251e-06
1.507651561495849e-06
1.981462896632314e-06
2.603483505227499e-06
3.413783058795247e-06
4.451892202425324e-06
5.753005621301963e-06
7.343988640491075e-06
9.238675635508863e-06
1.143349521446706e-05
1.388667334309532e-05
1.653200283904921e-05
1.92429752475608e-05
2.187811653643591e-05
2.428244902734432e-05
2.628565328593512e-05
1.242490691648918e-11
6.560540635605569e-11
1.332098585280169e-09
1.076506507306003e-08
4.34035041864835e-08
1.080059730549213e-07
1.99829221218359e-07
3.134226173349348e-07
4.575242016330893e-07
6.402876756897515e-07
8.597062604246491e-07
1.129602538236927e-06
1.473860670835352e-06
1.920187617216628e-06
2.502705651924826e-06
3.260683603558731e-06
4.235108996154238e-06
5.464646273532131e-06
6.9820453833314e-06
8.810132562062776e-06
1.095660358030415e-05
1.340869580976299e-05
1.611057811063623e-05
1.897883377113385e-05
2.186547148748658e-05
2.460908795356467e-05
2.703788453317222e-05
2.896522326204206e-05
1.273442484247705e-11
6.759383002088871e-11
1.373867240906743e-09
1.108024957289098e-08
4.445702689636914e-08
1.099906285919767e-07
2.021672015981142e-07
3.158023707443293e-07
4.589153535507684e-07
6.387801264986298e-07
8.56234306847444e-07
1.117378730597284e-06
1.446416389964911e-06
1.868557437809509e-06
2.415961930346219e-06
3.126237790089283e-06
4.040419303225541e-06
5.199503950523434e-06
6.64057038195282e-06
8.39326779825646e-06
1.04755530089943e-05
1.288775181509341e-05
1.560611836022986e-05
1.855861413844125e-05
2.164226377123056e-05
2.468564974795397e-05
2.750712616037717e-05
2.991859941383684e-05
3.17192232673996e-05
1.30433875892863e-11
6.960310317377988e-11
1.415942754508292e-09
1.13969733970156e-08
4.551292884392372e-08
1.119888202480007e-07
2.045915251159233e-07
3.184777239244453e-07
4.607998055940345e-07
6.385829632905823e-07
8.542946812084908e-07
1.108237196875676e-06
1.424362348234099e-06
1.825591393976132e-06
2.341723607920122e-06
3.008822703086156e-06
3.867133374796615e-06
4.958528405964381e-06
6.323212201586453e-06
7.995999358872183e-06
1.000269766296312e-05
1.235536520730403e-05
1.504545959620511e-05
1.803618318684343e-05
2.123695802001653e-05
2.452268276325111e-05
2.769748077515186e-05
3.055916558722631e-05
3.290477772652615e-05
3.452359348130188e-05
1.335155579384031e-11
7.162361878136171e-11
1.458500956376407e-09
1.171527833353377e-08
4.656837160624589e-08
1.139917641363334e-07
2.070843182334739e-07
3.213543852488121e-07
4.632600194593274e-07
6.389876478510876e-07
8.537799484375482e-07
1.101609349888885e-06
1.406885343459715e-06
1.790100932118052e-06
2.27877564916914e-06
2.906944884387256e-06
3.713846918313974e-06
4.741469684835766e-06
6.031674634368803e-06
7.623141249709465e-06
9.547712931016723e-06
1.182646896086962e-05
1.446430488686563e-05
1.74420358827003e-05
2.070748757481499e-05
2.414889244379893e-05
2.761721619956022e-05
3.089090020032781e-05
3.37475848686949e-05
3.597283104548446e-05
3.735217876722112e-05
1.365905732514658e-11
7.365556250405023e-11
1.501345508805517e-09
1.20362933304448e-08
4.762462791516508e-08
1.159907593642549e-07
2.096252600063191e-07
3.243923408035063e-07
4.661418752838839e-07
6.402569337809245e-07
8.529064064016386e-07
1.097244955649026e-06
1.393215151984765e-06
1.761055411616645e-06
2.225733658521098e-06
2.819207610397852e-06
3.579188175312798e-06
4.547253780303201e-06
5.766257184634512e-06
7.277273427124388e-06
9.116743287183078e-06
1.131273836329133e-05
1.388052891573117e-05
1.681632721216835e-05
2.008825920940386e-05
2.362603217457855e-05
2.729467417110236e-05
3.091905748481798e-05
3.425110188883082e-05
3.705036069391117e-05
3.909588849366229e-05
3.932380939321583e-05
1.396657674606075e-11
7.569852092308814e-11
1.544490909296511e-09
1.235858658605593e-08
4.868457789981828e-08
1.179903054303475e-07
2.12195729032819e-07
3.275513347311056e-07
4.693634844961453e-07
6.423340676263665e-07
8.521594689463218e-07
1.094683969684599e-06
1.382936714802678e-06
1.73744273248056e-06
2.18135634797345e-06
2.744086893682704e-06
3.461649009013459e-06
4.374709630004352e-06
5.526317779336388e-06
6.959355908722117e-06
8.713380755279922e-06
1.082183958046665e-05
1.330808402579271e-05
1.618026775541228e-05
1.942413214537312e-05
2.299261589701718e-05
2.679507482124506e-05
3.06708085061193e-05
3.441664106992305e-05
3.775850339842559e-05
4.044129856317942e-05
4.224448197272926e-05
3.987424128965144e-05
1.427231877460626e-11
7.775159105426317e-11
1.587931560260237e-09
1.268232484808593e-08
4.974341621886432e-08
1.19993954252113e-07
2.147989494731859e-07
3.30802849299706e-07
4.728440918735788e-07
6.450621078055357e-07
8.527150218674621e-07
1.093844583613497e-06
1.375402749617385e-06
1.718673078292599e-06
2.144369258575051e-06
2.680156775223917e-06
3.359634026906126e-06
4.222297984341118e-06
5.310956183644118e-06
6.669272337653591e-06
8.339363850701138e-06
1.035853232264886e-05
1.275637942191598e-05
1.555039890511527e-05
1.874007210364731e-05
2.229842305313615e-05
2.616115068442913e-05
3.021437107432675e-05
3.426912700844891e-05
3.809346269697166e-05
4.138874718474274e-05
4.389042520916101e-05
4.522772037365829e-05
4.056355853120557e-05
1.457777118657361e-11
7.980785888506186e-11
1.631627915788732e-09
1.300751284313589e-08
5.080201180182816e-08
1.219912830718241e-07
2.174341851981001e-07
3.341414729838408e-07
4.765420487137104e-07
6.482888982902381e-07
8.543283982193014e-07
1.094370745959056e-06
1.370439357834756e-06
1.703884353065476e-06
2.114013660342722e-06
2.625880299281109e-06
3.271576397123024e-06
4.088424286959805e-06
5.118686321319452e-06
6.40645697056012e-06
7.995192315934845e-06
9.925463793730657e-06
1.223152255840625e-05
1.493812677776528e-05
1.805555441787736e-05
2.157260890111588e-05
2.544776163474538e-05
2.959669163564231e-05
3.387918751234273e-05
3.807648493961422e-05
4.19278928355904e-05
4.511282450007651e-05
4.736526196396881e-05
4.592734666969774e-05
4.209729031396675e-05
1.488258993474222e-11
8.187694209663913e-11
1.675457982492736e-09
1.333377525297947e-08
5.186055454065186e-08
1.239845199632081e-07
2.200782222212843e-07
3.375601368186783e-07
4.804356358839431e-07
6.51903834719802e-07
8.567710159755764e-07
1.096037630182422e-06
1.36756485992878e-06
1.692780033143182e-06
2.089187734910062e-06
2.580352633304065e-06
3.195695461027544e-06
3.971438140066851e-06
4.947984892017044e-06
6.169561711217327e-06
7.680696815034168e-06
9.523842342063199e-06
1.173721631602097e-05
1.435111454492657e-05
1.738426931188309e-05
2.083795578762542e-05
2.468869023377155e-05
2.887779127745796e-05
3.329782445722432e-05
3.777990433090077e-05
4.207440985659519e-05
4.589306555162238e-05
4.889810384788475e-05
5.083188043220669e-05
4.636847943644818e-05
4.456182116713173e-05
1.518740180978592e-11
8.395318556882903e-11
1.71962154772727e-09
1.366032570802956e-08
5.291738150562234e-08
1.259742686116622e-07
2.227333319317137e-07
3.410177668233052e-07
4.845038392108414e-07
6.559060222159962e-07
8.596190232424011e-07
1.098660490748973e-06
1.366444225242224e-06
1.684720576778045e-06
2.069447976149681e-06
2.542214852966809e-06
3.130978165455523e-06
3.869349405684749e-06
4.797183386496744e-06
5.957200246877551e-06
7.394751693998271e-06
9.153961030832962e-06
1.127547812920663e-05
1.379428833491036e-05
1.673567376301269e-05
2.01107578588826e-05
2.391042055230355e-05
2.809650540774477e-05
3.259019171945969e-05
3.725842580105116e-05
4.190153088996117e-05
4.623877468779457e-05
4.995767734793914e-05
5.270920826034252e-05
5.223510416438503e-05
4.762609383620273e-05
4.774195510556075e-05
1.549184242676327e-11
8.603608526953887e-11
1.764008510593912e-09
1.398862098588506e-08
5.397053451408919e-08
1.279560878253409e-07
2.253993199721197e-07
3.445137700676767e-07
4.886782956309153e-07
6.602567536711656e-07
8.630423767432784e-07
1.10099513020544e-06
1.366808306961897e-06
1.679235506998389e-06
2.053972142087815e-06
2.510862691789917e-06
3.075802593730399e-06
3.781085657631426e-06
4.664127479454133e-06
5.76775485947545e-06
7.136168750976091e-06
8.815001851589002e-06
1.084713929253154e-05
1.327058869641018e-05
1.611610822700564e-05
1.940253479837239e-05
2.313219955503371e-05
2.72834258323253e-05
3.1800570411604e-05
3.658216380135116e-05
4.146707770716793e-05
4.62231968670752e-05
5.054037455832165e-05
5.408658988940783e-05
5.650912580323301e-05
5.271596782933612e-05
4.995057029998347e-05
5.133591130205156e-05
1.579434185551825e-11
8.812758082845232e-11
1.808584866683715e-09
1.431796413864452e-08
5.502474926437368e-08
1.299272461385931e-07
2.280656892547041e-07
3.480463084954097e-07
4.929486251631006e-07
6.64846240398889e-07
8.670936364599452e-07
1.103352417470241e-06
1.36843233315177e-06
1.675951943317052e-06
2.042131405246607e-06
2.485275799001156e-06
3.029402868999772e-06
3.704769450686896e-06
4.547739597039836e-06
5.598959130578326e-06
6.903450271156719e-06
8.506033581592969e-06
1.045177787938894e-05
1.278147609632757e-05
1.552956900719308e-05
1.872125779964484e-05
2.236790878124723e-05
2.646112433315981e-05
3.096406283138869e-05
3.580118105426186e-05
4.084576825255379e-05
4.59064132605658e-05
5.071852879841057e-05
5.494525026981987e-05
5.824161142631858e-05
5.900417180613059e-05
5.375222597763004e-05
5.315695548402796e-05
5.508876104713475e-05
1.609711120507713e-11
9.022210484149119e-11
1.85341196006583e-09
1.464800871113239e-08
5.607801798677962e-08
1.318971108514802e-07
2.307290606125277e-07
3.515977095815952e-07
4.973077539101426e-07
6.696417744215827e-07
8.716062996404275e-07
1.106670097447133e-06
1.371171699890562e-06
1.67455746285978e-06
2.033430409105015e-06
2.464649596985535e-06
2.990556622888898e-06
3.639485782537057e-06
4.445907597307246e-06
5.449784758928118e-06
6.69427368487815e-06
8.225746789157131e-06
1.008877990916481e-05
1.232701957228887e-05
1.49782561328339e-05
1.807213428249656e-05
2.162739308991876e-05
2.564617119482666e-05
3.010695170765581e-05
3.495547158428759e-05
4.009369799519147e-05
4.536715689029269e-05
5.0553324832842e-05
5.535571420523095e-05
5.941514867851044e-05
6.238371351823026e-05
5.963184357116777e-05
5.587255196313845e-05
5.690953728892544e-05
5.886585168440333e-05
1.639985516835244e-11
9.232423935824759e-11
1.898414709215883e-09
1.497927509538355e-08
5.712889444174532e-08
1.338617651524527e-07
2.3340381505154e-07
3.551617711641656e-07
5.017275389275266e-07
6.746233470338962e-07
8.765091117971427e-07
1.110725033628028e-06
1.374913066706147e-06
1.674816039533867e-06
2.027450175897008e-06
2.448349852715921e-06
2.958274440688135e-06
3.583818891817715e-06
4.357591529134112e-06
5.317917259539697e-06
6.507710491773121e-06
7.971821001912839e-06
9.757091943842127e-06
1.190698815848583e-05
1.446283455870932e-05
1.745823715120896e-05
2.091725247522542e-05
2.485055415013078e-05
2.924884547654683e-05
3.40754162832886e-05
3.92560899770113e-05
4.466769032336246e-05
5.01266404246273e-05
5.537880249262094e-05
6.009765063996325e-05
6.390945169325462e-05
6.622551261377249e-05
6.039551712843033e-05
5.901464719716658e-05
6.089336705665034e-05
6.267604822017681e-05
1.670283809776449e-11
9.443576235667164e-11
1.943636093650877e-09
1.531147552810359e-08
5.817928770968174e-08
1.358176890968876e-07
2.360808506789267e-07
3.587583761087946e-07
5.061985122318417e-07
6.797431699628667e-07
8.817583544210911e-07
1.115404554257566e-06
1.379445273102958e-06
1.676570056729654e-06
2.023838362452555e-06
2.435830861266778e-06
2.931771067749213e-06
3.536595630046474e-06
4.281202966514069e-06
5.202224860781785e-06
6.341285428385746e-06
7.743472386477528e-06
9.454456304500891e-06
1.152065317045645e-05
1.398353152671534e-05
1.688094583621416e-05
2.024159159225632e-05
2.408247533761448e-05
2.840416790597242e-05
3.318402565066365e-05
3.836779399870369e-05
4.385873271500158e-05
4.950689005227429e-05
5.509833457759052e-05
6.034780100719404e-05
6.49036011985303e-05
6.838697469825069e-05
6.706752349671683e-05
6.222206825104562e-05
6.28565375902858e-05
6.491332317375199e-05
6.666181223549859e-05
1.700526293714277e-11
9.655490886933948e-11
1.989145195362151e-09
1.564469452033117e-08
5.922930518076082e-08
1.377687582113898e-07
2.387526076002024e-07
3.623722403243782e-07
5.107441250856803e-07
6.849880841977806e-07
8.872709819579882e-07
1.120637220595325e-06
1.384680775004634e-06
1.679535454949353e-06
2.022373381294103e-06
2.426599720989407e-06
2.910355901093039e-06
3.496873639406587e-06
4.215396894114926e-06
5.100977357809801e-06
6.193813594933085e-06
7.538113134840638e-06
9.180273046774635e-06
1.116588397812196e-05
1.354001525499948e-05
1.634103372306514e-05
1.960263999306594e-05
2.334725745310139e-05
2.758296132757606e-05
3.229847213620983e-05
3.745558942202369e-05
4.297993458510119e-05
4.875045802233246e-05
5.45886781076667e-05
6.024977836661778e-05
6.542062421353714e-05
6.973068463127882e-05
7.280791989226761e-05
6.751908156278108e-05
6.52260185207711e-05
6.703735578568901e-05
6.89368497916023e-05
7.107869329163124e-05
1.730804000827416e-11
9.867874334394609e-11
2.034900416721147e-09
1.597958506254968e-08
6.027847199273166e-08
1.397170376046642e-07
2.414234954402518e-07
3.659901629590665e-07
5.153394404884937e-07
6.90386837835016e-07
8.929985165391163e-07
1.126302912520984e-06
1.390553712677307e-06
1.683573563745004e-06
2.022683831980359e-06
2.420352514433981e-06
2.893374445952393e-06
3.463804392891528e-06
4.159075125883877e-06
5.01267964002577e-06
6.063461215255258e-06
7.354546672915468e-06
8.931895163477997e-06
1.084230017899458e-05
1.313035199840175e-05
1.583864421745533e-05
1.900182051937139e-05
2.264813580832625e-05
2.679198088961918e-05
3.143090334294267e-05
3.653972206471025e-05
4.20621978807109e-05
4.790206072560633e-05
5.391192516049791e-05
5.988348807409967e-05
6.554306542732955e-05
7.055410308588766e-05
7.453570037254534e-05
7.465756730848094e-05
6.898087008986399e-05
6.911122949160509e-05
7.129873743251445e-05
7.309490294607714e-05
7.627989683396775e-05
1.761149088699375e-11
1.008168194582156e-10
2.080855126880402e-09
1.631585696084737e-08
6.132920917600874e-08
1.416606660373773e-07
2.440987853911628e-07
3.696163650408869e-07
5.199627572365288e-07
6.958976025840658e-07
8.990086974529128e-07
1.132196402190449e-06
1.396957074319875e-06
1.68857931397759e-06
2.024565475947475e-06
2.416615654227458e-06
2.880424074634465e-06
3.436556179630521e-06
4.111225690891905e-06
4.936086815483476e-06
5.948612813967213e-06
7.190878091834098e-06
8.708156512578549e-06
1.054725297164079e-05
1.275441583768743e-05
1.537211797107152e-05
1.843983908745011e-05
2.198730320478128e-05
2.603564543417871e-05
3.058974917337409e-05
3.563473332440308e-05
4.112916718665473e-05
4.699704291473044e-05
5.311802393869793e-05
5.931661988470255e-05
6.535570849652961e-05
7.093572080013792e-05
7.570309820939251e-05
7.92784111842341e-05
7.516913132823209e-05
7.177653211045962e-05
7.346815002280396e-05
7.556078845774457e-05
7.766349586374415e-05
8.269834204707717e-05
1.791559492906029e-11
1.029628402373421e-10
2.127226804024151e-09
1.665327401452681e-08
6.238054285831351e-08
1.436043380949946e-07
2.4677602337339e-07
3.732583752828894e-07
5.246161702450453e-07
7.014858208044743e-07
9.052389818756725e-07
1.138460551071077e-06
1.403492177027459e-06
1.694408215872303e-06
2.027861102265209e-06
2.415104286615209e-06
2.870915058127587e-06
3.414614567524448e-06
4.070831255399087e-06
4.870026644531695e-06
5.847893360986139e-06
7.045406745286862e-06
8.507145210700982e-06
1.027964870287954e-05
1.240961779539574e-05
1.494162153318939e-05
1.791539831170537e-05
2.136612729773067e-05
2.531705628074655e-05
2.978081293105583e-05
3.475099627630559e-05
4.019808328365766e-05
4.606275879346667e-05
5.224702322600524e-05
5.860438403510006e-05
6.493156010370312e-05
7.096427917640449e-05
7.638187364035713e-05
8.082346936137497e-05
8.244630240334691e-05
7.630575128643463e-05
7.564697924622113e-05
7.797097193866794e-05
7.994163027924488e-05
8.304222399558693e-05
9.077913851604792e-05
1.821968567518767e-11
1.051237751774902e-10
2.173862203758899e-09
1.699344102929309e-08
6.343218780286535e-08
1.455459223318128e-07
2.494589360501377e-07
3.769143966175428e-07
5.293070310865929e-07
7.071480297142438e-07
9.116360366252682e-07
1.145109100156391e-06
1.409809230359377e-06
1.700944933112789e-06
2.032379028757217e-06
2.415594751986345e-06
2.864467464100671e-06
3.397262064807723e-06
4.037257148133126e-06
4.813296076854529e-06
5.759982146440635e-06
6.91665042221517e-06
8.32711375399098e-06
1.00376027691994e-05
1.209497881540482e-05
1.454469194165922e-05
1.74290016902268e-05
2.078377217270961e-05
2.463835647348479e-05
2.900826109188845e-05
3.38959224391835e-05
3.928155332279143e-05
4.511946229091294e-05
5.133026277655804e-05
5.779170499245482e-05
6.43309479889148e-05
7.071764551097309e-05
7.666354412854907e-05
8.183495151093316e-05
8.587496509581899e-05
8.312218824880474e-05
7.878034407707667e-05
8.014177541123978e-05
8.249240742872862e-05
8.474028001090198e-05
8.972797758175553e-05
0.0001007395403431017
1.85257205987054e-11
1.072903404921481e-10
2.220942350616875e-09
1.73352431427592e-08
6.448925184702939e-08
1.474856253892334e-07
2.521439904912772e-07
3.805875778429883e-07
5.340356878355547e-07
7.128867008014203e-07
9.181854611153538e-07
1.152064579528115e-06
1.4167021676049e-06
1.708222450690158e-06
2.037951686328704e-06
2.417836212026612e-06
2.860776263989422e-06
3.384011182857942e-06
4.009650292731828e-06
4.765137552264385e-06
5.683498880254342e-06
6.803159290694892e-06
8.166500747050439e-06
9.819360504495566e-06
1.180868547902503e-05
1.418050809643806e-05
1.69783842634901e-05
2.024113286250336e-05
2.399928472306479e-05
2.827514237780662e-05
3.307491717450835e-05
3.838884120800952e-05
4.418230210007174e-05
5.039131935747489e-05
5.691412279791314e-05
6.360372052138559e-05
7.026090550585364e-05
7.663022202985051e-05
8.240565776653717e-05
8.725023431382146e-05
9.029736438966676e-05
8.39178977079244e-05
8.250358722599811e-05
8.487481962979111e-05
8.714203264375611e-05
9.0408045914981e-05
9.824021781795623e-05
0.0001118851757543351
1.883227778186163e-11
1.094786615947137e-10
2.268273303543788e-09
1.768008458423714e-08
6.554814252265904e-08
1.494334770436401e-07
2.548306472432011e-07
3.842722265573229e-07
5.388043677854584e-07
7.187054059501133e-07
9.248777731818498e-07
1.159295672392237e-06
1.424069454837176e-06
1.71613437775363e-06
2.04458931484135e-06
2.421593457813327e-06
2.859517708599636e-06
3.37446107894209e-06
3.987406620044249e-06
4.724559549566542e-06
5.617566726971128e-06
6.703392222576902e-06
8.023752500663158e-06
9.623313153784736e-06
1.154901620955321e-05
1.38473716526937e-05
1.656292890853584e-05
1.973622110656994e-05
2.340119492845764e-05
2.758189784080567e-05
3.229208340682713e-05
3.752677983180747e-05
4.32626546186089e-05
4.94481983642632e-05
5.599882681809254e-05
6.278974050550687e-05
6.964872050311069e-05
7.635113511067241e-05
8.262122143578588e-05
8.814282828922814e-05
9.258830013647839e-05
9.113235298317355e-05
8.602596907621704e-05
8.704802551877664e-05
8.967585714657741e-05
9.225156602705858e-05
9.751177473827272e-05
0.0001088712841413335
0.0001207394718147109
1.913980392983016e-11
1.116776002097712e-10
2.316198970345746e-09
1.802668687977062e-08
6.661345947704525e-08
1.513823736825786e-07
2.575361316448251e-07
3.879660159542128e-07
5.43604073178339e-07
7.246049717888527e-07
9.317192245959593e-07
1.166773642983807e-06
1.431865523909307e-06
1.724575079672992e-06
2.052160297905484e-06
2.426847930227062e-06
2.860373040044935e-06
3.368200486508063e-06
3.970016798673351e-06
4.690837132566944e-06
5.561058518189543e-06
6.616362840096635e-06
7.897190133944344e-06
9.447832689131822e-06
1.131434971893771e-05
1.354363489943145e-05
1.618109761927868e-05
1.926867444811302e-05
2.284246235738186e-05
2.693042286452001e-05
3.154870730173999e-05
3.670069390766459e-05
4.236898043130794e-05
4.851465723791032e-05
5.506698908560031e-05
6.192006141558061e-05
6.892527014315137e-05
7.58854528972919e-05
8.255409414211036e-05
8.864111836348224e-05
9.38304706256776e-05
9.781810314612779e-05
9.161274447060187e-05
8.956679825479456e-05
9.198243316830969e-05
9.465124434936652e-05
9.833653651504351e-05
0.0001066412073736267
0.000120979299030591
0.0001296299396790187
1.944796794553879e-11
1.138915032217823e-10
2.364500493000941e-09
1.837744678763451e-08
6.768161016346985e-08
1.533411615176034e-07
2.602486032462896e-07
3.916945618568811e-07
5.484284718655121e-07
7.305718700332575e-07
9.387085378837745e-07
1.17450354166389e-06
1.440043218876268e-06
1.733524568418532e-06
2.060523145800269e-06
2.433431298676306e-06
2.863286078696997e-06
3.364811334107556e-06
3.956967910003474e-06
4.663342975051392e-06
5.513129775335205e-06
6.540816819198578e-06
7.785732798930571e-06
9.291130700002126e-06
1.110301610819384e-05
1.326770166959162e-05
1.583135863210869e-05
1.883716356233946e-05
2.232303623661322e-05
2.631955199200845e-05
3.084732501679913e-05
3.591287181883132e-05
4.150801257371521e-05
4.760099089768358e-05
5.413501406132233e-05
6.101931025127466e-05
6.812566520320567e-05
7.52814969060507e-05
8.226742598402378e-05
8.881949541628274e-05
9.464185157481204e-05
9.943077440310165e-05
9.894487832238992e-05
9.339221617258152e-05
9.414666988016886e-05
9.708934720678396e-05
0.0001001739518481534
0.000106039570174883
0.0001181145824693016
0.0001310397658616967
0.0001393965875319273
1.975419232109543e-11
1.161127294782919e-10
2.413288628588254e-09
1.873092684436244e-08