/*--------------------------------*- C++ -*----------------------------------*\
| =========                 |                                                 |
| \\      /  F ield         | OpenFOAM: The Open Source CFD Toolbox           |
|  \\    /   O peration     | Version:  2006                                  |
|   \\  /    A nd           | Website:  www.openfoam.com                      |
|    \\/     M anipulation  |                                                 |
\*---------------------------------------------------------------------------*/
FoamFile
{
    version     2.0;
    format      ascii;
    class       volScalarField;
    location    "518";
    object      omega;
}
// * * * * * * * * * * * * * * * * * * * * * * * * * * * * * * * * * * * * * //

dimensions      [0 0 -1 0 0 0 0];


internalField   nonuniform List<scalar> 
28643
(
1061408.65564041
1061468.799646856
173549.3109209438
1061514.561377823
173574.8815691688
54669.7960975095
1061515.873265018
173599.3976912531
54718.07660811898
24349.11015548148
1061527.835176255
173617.2427638207
54770.80280182494
24433.10224726838
13386.56897919782
1061542.197261183
173638.0138936104
54825.56624795772
24527.81052596836
13496.78581148022
8347.09982318567
1061536.160896717
173659.4890445203
54884.37537112335
24631.1470713325
13624.12880933065
8461.884545696474
5585.733292988985
1061515.700910766
173677.1156715119
54944.23564482583
24741.36909866615
13766.07266389728
8598.259433649262
5688.090381887417
3927.192475242606
1061481.949275888
173691.5774650426
55002.79285841424
24853.21328286856
13918.00581928253
8753.662006854362
5812.762306989534
4009.94114920786
2885.407746132428
1061439.794770072
173703.0164519577
55058.74078247997
24963.75900364693
14072.35009600025
8922.008302487866
5958.11035885515
4112.449340179615
2948.522741058558
2206.088402936513
1061391.87793404
173712.3060070521
55112.34040604964
25069.93672385228
14224.05101760246
9094.576035898412
6118.553551394361
4234.379667885855
3027.456953808573
2252.799668793354
1745.340487406934
1061333.424284583
173719.9228117843
55163.60451698023
25171.85369024603
14368.8944662593
9263.903153154151
6285.996213381695
4371.88378138194
3122.815792214271
2311.472667241463
1779.413541716936
1420.431113673038
1061263.625095834
173725.0091115486
55212.77433561259
25269.11800911698
14505.94715405315
9425.28891156023
6451.852938926394
4518.788432193591
3232.531030458821
2383.136767011617
1822.283920968452
1445.052157864598
1182.998529326447
1061182.673368581
173727.455738765
55259.63647221468
25361.97367841497
14634.77063464287
9576.130643948984
6611.349466734094
4667.053667705517
3352.621976290425
2466.98149004516
1875.053788067552
1476.078917986797
1200.572913440982
1004.009588690936
1061090.572517127
173727.3246284549
55304.29370381243
25450.54536337063
14755.60310065341
9715.97564857991
6760.370124958529
4812.31334335225
3476.58782813156
2560.792296957085
1937.638101771042
1514.519462141099
1222.81329166978
1016.278648148183
865.4590319487563
1060987.203789901
173724.4805704302
55346.88236990178
25535.18839991734
14868.8770960459
9844.883498923515
6898.097302598937
4949.653268735965
3600.936667385035
2659.777315765656
2008.996901711857
1560.654672137636
1250.577878309232
1031.970051149989
873.6704920564538
755.7957327445143
1060872.370364605
173718.6506037595
55387.13271821204
25616.25174651704
14975.2782448515
9963.440762212524
7024.116265280673
5077.698522460439
3720.799508496552
2761.495777949769
2085.758175297489
1614.141775149212
1284.309876363729
1051.787889917819
884.4229183100244
760.8474047037339
667.3630690256824
1060745.804187363
173710.1040173343
55424.44959565376
25693.60457208761
15075.50522647825
10072.58019804186
7138.80613075075
5195.399685582301
3834.442003550363
2861.717760361475
2166.414164579406
1672.635717054401
1324.051257909435
1076.232414877947
898.2810813925361
767.8196728080538
669.9078321821396
594.9300354922602
1060607.184132216
173698.8168158876
55459.6053132407
25766.57082000639
15170.10265259364
10173.32243112059
7243.032385159335
5302.622702409019
3940.317525597484
2958.70730604768
2247.595009662888
1735.314941635701
1368.153321691433
1105.545334389731
915.750642102332
777.1572043603006
673.9408382504942
595.448774418505
534.8234201395019
1060456.135418637
173684.7318982355
55492.7304141753
25836.22279925569
15259.00875226715
10267.21404855694
7337.872637184285
5399.845213509664
4037.739291486337
3050.735118227599
2327.82488560083
1799.624089111401
1416.240479190833
1138.540248563025
937.168808967154
789.3467430940829
679.8046282584797
597.1596921202259
533.6749560463871
484.3995509196881
1060292.247594618
173667.670540855
55523.83333428132
25902.94517544942
15342.9140536548
10355.45133532054
7425.796961007092
5487.89717465158
4126.670688927075
3136.746148695998
2405.481572830725
1864.440368463651
1466.41431980726
1175.10615162629
961.6574746433917
804.7636035527729
687.9560187499837
600.3182567504005
533.52228945025
481.854890322348
441.7132839024284
1060115.05806697
173647.7772556111
55552.62191699053
25966.77300812457
15422.46851360882
10437.57488876637
7509.632345099133
5568.921779644873
4207.52421705871
3216.267437619928
2479.392660819303
1928.409771762657
1517.880065581426
1213.832662978304
989.2498801536954
822.7393267287164
698.7772342162725
605.3466637891072
534.5458745799485
480.1832385818072
437.979360328798
405.3048128122612
1059924.073765517
173624.8756418322
55579.83453986811
26027.7015025755
15497.75557434914
10514.27845375178
7587.137684320976
5646.31515030407
4281.583929785376
3289.290595405195
2548.832195652595
1990.437060920428
1569.590553733386
1254.180121213007
1018.884079863604
843.3772291785219
711.7462476462554
612.6172189444054
537.1314689959818
479.4995744851797
435.0504159695586
400.5412183631649
374.0587859191978
1059720.067920132
173598.9789336993
55604.9942308497
26086.69848114434
15569.88335294842
10585.75302016805
7658.640594759682
5718.277737262474
4350.981253222543
3356.473391632786
2613.480210900569
2049.726632019721
1620.626998591372
1295.375120254101
1050.199200602658
865.8607922251823
726.9930044209494
621.7132362951128
541.6325090729551
480.1526775586537
432.9835752653534
396.5554946585453
368.3898150561814
347.108927497049
1059502.735559129
173570.2464615049
55628.54388876283
26143.05535209649
15639.06582539782
10654.91709628684
7724.510255340366
5784.399269661898
4415.136678097788
3418.671016287814
2673.511072133933
2105.792226024448
1670.249957540633
1336.697453258201
1082.636596285386
889.9460608202455
743.8742404792052
632.766849289953
547.710251443601
482.4724394042644
432.0906469073547
393.3531742591483
363.5021217614637
340.6324850426187
323.7719668904344
1059269.177698986
173538.5700345707
55650.54242634944
26197.51399539261
15704.72003281621
10720.26343209342
7787.48377565084
5845.438293369826
4474.267544737563
3475.684977155517
2729.143360885142
2158.485456568034
1717.930730971512
1377.524027389771
1115.65377142119
915.2305299261067
762.2185934024019
645.2585964605926
555.4859686929567
486.1792684101418
432.6756441198015
391.2093861495333
359.3550265356717
334.9631764064924
316.5663850086494
303.5020952452111
1059018.451136103
173503.3630758131
55670.89549025072
26250.20935369308
15767.54372406553
10781.49383686587
7846.047319452977
5902.27386181325
4529.698927105235
3528.245987169993
2780.288742486885
2207.636655891295
1763.344715089588
1417.362638625076
1148.756254752478
941.3129019749467
781.7318156332527
659.0600806554918
564.5301770716006
491.3771239057588
434.5047951650197
390.401187294866
356.1874948090749
330.018987334166
310.2097409324316
295.6316323870676
285.8534087390985
1058750.805553352
173464.4720981695
55689.31399276158
26301.07714702381
15827.92128088748
10839.07067213061
7900.34362352295
5954.421001451009
4580.605777530868
3577.115774205901
2827.45507426504
2253.167862336878
1806.117797894076
1455.822843891509
1181.524685466403
967.8137660184243
802.1170836861002
673.9498611039332
574.7385335615379
497.7031920656084
437.6620840643099
390.7308716827829
354.2492496226942
326.0035311430129
304.5833646468502
288.6623424044284
277.3727385831374
270.4570892566809
1058465.731372168
173421.8859015387
55705.80945588409
26349.92717454416
15885.88520121198
10893.66457302783
7950.544175190754
6002.587472064561
4626.96776076384
3621.891030497735
2870.707974730783
2295.367868536887
1846.150782600722
1492.456094202529
1213.572245608003
994.3937632892723
823.0870606058045
689.7049973357194
585.9375634692169
505.065476623549
441.8350175586217
392.2618708578764
353.3712668599816
323.1392176611874
299.8567406899584
282.4436117163916
269.8509815240172
261.4154055981154
257.0037357662752
1058166.986604643
173375.5795561009
55720.29271003073
26396.84203812023
15941.36688617618
10945.44661101641
7997.478132647418
6046.584623633969
4670.030741697838
3662.630219039781
2910.393035895485
2334.137210264278
1883.536192912585
1527.144238615174
1244.457906271089
1020.705226156909
844.3741494475202
706.1070066433293
597.9550470739412
513.321616698076
446.9369011910823
394.7203218992448
353.5969887570565
321.2799628911035
296.2252808746694
277.1126301008338
263.1105320724997
253.3911642371284
247.4486747469782
245.2270113010854
1057851.310743729
173326.2059634935
55732.9583324269
26441.75049049265
15994.47137078305
10994.48894987774
8041.442030752534
6087.207603190903
4709.214637421508
3700.870495030128
2946.554721431929
2369.821740863206
1918.091068544195
1559.839108046998
1274.058136311171
1046.357867686371
865.6824717876574
722.9461942862813
610.6217910646908
522.333509175905
452.845252856638
398.0206911132924
354.6826040505283
320.4503446133766
293.5612428729488
272.8383990688841
257.25883333979
246.1851748017038
238.9655895641785
235.2084879442022
234.891453565345
1057511.261040345
173273.1255203073
55743.99220193546
26484.97029514276
16045.24854599049
11040.88201981363
8082.629359377025
6124.83866334289
4745.069830050604
3735.826198134242
2980.3138829289
2402.425196861044
1950.08888685309
1590.318418412298
1302.242642316485
1071.235447090828
886.6885020623056
739.9781814056834
623.7719601295488
531.9662395047517
459.4445614151621
402.0529501638217
356.5413886439122
320.4301661875517
291.871736967175
269.5077457528344
252.4394465052558
239.8785578917094
231.339745356408
226.3073881695925
224.4657691303379
225.6695958318468
1057148.944029577
173214.9460946561
55753.12544237043
26526.60493082136
16094.0011257886
11084.83178895093
8121.091376661404
6159.768778267597
4778.012412383016
3767.685982852764
3011.124042702358
2432.58845793299
1979.465237854261
1618.76991261122
1328.7786547383
1095.172932358857
907.2907230664206
756.9458794848151
637.2064718592603
542.0859365936997
466.6232902715203
406.7163240899131
359.0708650213003
321.1302258806066
290.9552193246776
267.1118101207307
248.5506159405428
234.5909250239268
224.6304361577309
218.300327766378
215.1881114304759
215.0169458385709
217.0576503781056
1056772.6599741
173152.0565083565
55759.84420428564
26566.50219621732
16140.91836194518
11126.56111916196
8157.158090102697
6192.028832112347
4808.396292154447
3796.840207168244
3039.226069094039
2460.03403645342
2006.65657163909
1645.061170991199
1353.779910123552
1117.946718771435
927.3213038268904
773.764754156923
650.7262575413898
552.530813099503
474.2703479517812
411.9149973530558
362.1796829763389
322.4523488271072
290.7193568656643
265.4638053394306
245.5690381184768
230.2292731377616
218.9355522661718
211.2304852741036
206.8346158078487
205.4084164064261
206.6602386158806
208.57168436205
1056375.588101384
173085.9097325387
55764.33164648572
26604.41416468777
16185.9232757578
11166.38169364099
8190.972730288981
6221.993056793915
4836.313720758141
3823.645394192813
3064.944528110728
2485.117273795761
2031.482970669701
1669.484152015855
1377.062262180033
1139.616228127441
946.5778612042908
790.2820378793002
664.2626115403345
563.1486702407465
482.2535014200258
417.5539373415028
365.7824711891233
324.3110197714654
291.0681055873408
264.4679719584531
243.3195656720334
226.7573797011769
214.1685322241547
205.1772566243635
199.4393816733074
196.742514020334
196.7887723542968
198.9877661134839
199.9050587961372
1055946.818489309
173015.2483862409
55766.99175862366
26640.49522646834
16228.88900836434
11204.28088698604
8222.924431060088
6249.73972622056
4862.059719080549
3848.360827249538
3088.57700800431
2508.102770284084
2054.229939975427
1691.908229477784
1398.816569595715
1159.968256035731
965.0846631091908
806.3222301797857
677.685293476614
573.8838661731918
490.4564748297688
423.5237930015242
369.7954847378706
326.627705756913
291.9193444680706
264.0289311810874
241.7029187461972
224.0092310903896
210.2817937672898
200.0584949651492
193.0678484130944
189.0528332045176
187.8468865165875
189.1631793126679
191.5140011345389
190.9048481379024
1055500.435274299
172938.0535436824
55767.43982775116
26674.84818055908
16269.97094288059
11240.19736060936
8253.058458485699
6275.68331324283
4885.651144624834
3871.091988401183
3110.531731457678
2529.223589183825
2075.11003813613
1712.540006705178
1418.932187551231
1179.124363926039
982.6212212871774
821.889387572666
690.8465614001285
584.6296499866064
498.8335842349966
429.7347952288522
374.1268282789347
329.3266080566109
293.1989136024637
264.0662741307528
240.6233802705344
221.8820342256072
207.1164454909695
195.8168828095541
187.6404750006814
182.3970181576176
179.8922116835917
179.9873970434963
182.2222871288272
183.9180890628265
181.5456317662851
1055032.854661582
172856.9022034372
55764.93451664613
26707.35486345107
16309.22552318346
11274.28199985595
8281.353670184468
6299.921391541001
4907.490466879191
3891.77355188512
3130.76906856464
2548.716430403931
2094.301937176129
1731.537124330727
1437.542715011195
1196.980063096936
999.2630486090951
836.7726928311391
703.7403060825686
595.2639207504542
507.2991328240241
436.1484307414564
378.7057173024141
332.3289992251735
294.8366184977747
264.5085140121926
240.0010809385535
220.2790419871404
204.5662491444349
192.2990912662939
183.0919653428399
176.6965124204561
172.9827289647662
171.7984806408691
173.0148988196922
175.5546794191052
176.0110673211818
171.864740469908
1054529.64257779
172771.0970572711
55760.43911358804
26737.67108226267
16346.58439238008
11306.62555101784
8307.943723187369
6322.465102460777
4927.716543371848
3910.768825353901
3149.12549238361
2566.647483453236
2111.847210844918
1749.023869360552
1454.752956202337
1213.608369791918
1014.90800407907
851.0180648293625
716.1761323769165
605.7762697511479
515.7530803603494
442.696302176366
383.4985856211176
335.5773534590632
296.7635595847869
265.2893984489826
239.7660162062293
219.1200962339371
202.5329530713131
189.395538503054
179.2734265190684
171.8799911304184
167.0394148340459
164.6651055858207
164.6269699583735
166.710527753358
168.8323874889968
167.7270473816133
161.9000875499996
1054007.070799225
172677.9039315654
55753.68977132293
26766.32218353159
16381.91353809733
11337.13812440721
8332.95782635461
6343.428438027668
4946.369754708455
3928.239016785354
3165.905555198636
2582.917492698674
2127.936334193738
1764.997557581053
1470.637698555925
1229.067560592952
1029.583117323128
864.5270353073289
728.1815525103118
616.001855808657
524.1836707375152
449.2964742545943
388.4504520117345
339.0413910192772
298.9312441105934
266.3472644964696
239.8546673821293
218.3358228232087
200.9355183516772
187.006157103379
176.072071084353
167.802336398459
161.9871429793377
158.506517114078
157.3012763254982
158.2408567751577
160.7369568313306
161.8382741647203
159.0772166803044
151.6671060903739
1053455.593628338
172580.3286791555
55743.55893798076
26793.19820322495
16415.5743842355
11365.81167099013
8356.288405329969
6362.965406518631
4963.554041518071
3944.246667117944
3181.269245543342
2597.765766217298
2142.551651040776
1779.661519766909
1485.174867626889
1243.391344844439
1043.309157662239
877.2947771483975
739.6646226161087
625.9569175179438
532.4524791189159
455.9370160330126
393.4937776748983
342.6761075051346
301.3114884863505
267.6396032838709
240.2105992405326
217.8645309226915
199.704578842544
185.0486086454479
173.3858375125715
164.3477388145591
157.6844192953883
153.246371636923
150.9544904809946
150.7590832623168
152.4971698966369
154.7572873313219
154.4666157333011
150.0917634447096
141.1692661446108
1052869.19127732
172476.607002085
55731.23132214083
26817.61995614275
16447.53572571794
11392.92825795038
8377.991619487013
6380.967732750967
4979.435820157298
3958.89602448559
3195.288614475299
2611.331784744203
2155.880026871467
1793.000855166078
1498.551634716456
1256.549558213275
1056.088762113826
889.3145453759784
750.6007686421207
635.5584780950247
540.5687733425253
462.5041148600712
398.6167225123499
346.4251834500149
303.8664642585967
269.1394873399204
240.7951156708659
217.6534506995711
198.7795711706867
183.4530739643912
171.1308076395906
161.4120885928498
154.0126712914285
148.7472322171552
145.5120991600348
144.2530717620185
144.9127062806392
147.1184951179912
148.5347684954276
146.6993533676113
140.7875783242632
130.4257733245679
1052259.020154151
172365.5981706775
55716.1006629078
26840.25122286622
16477.35290007206
11418.49824392301
8398.299923714874
6397.516702931712
4993.908869474152
3972.372617234727
3208.065800297338
2623.684770528933
2168.040153283468
1805.161596147882
1510.750687321337
1268.698462130526
1067.88811457972
900.5677934190193
760.9652057622311
644.7715651168857
548.4597865795532
469.0024839589705
403.7268971940038
350.2767459387965
306.548486621083
270.8141001404755
241.5819541553074
217.6661681368308
198.1101743553404
182.1595616875714
169.2363701477008
158.9097309664941
150.8658143989423
144.8881346845261
140.8418102831953
138.6538958078233
138.2808667251444
139.6387574470895
141.7629277892918
141.9351489604366
138.5557511655151
131.1698978917412
119.5025549459608
1051609.767229213
172249.2976655808
55697.73510344468
26860.86979466659
16505.41735161493
11442.23889083368
8417.246203060795
6412.809572236816
5007.057359982763
3984.553440254564
3219.829151799975
2634.911246175316
2179.096376318805
1816.24496696207
1521.881577682951
1279.816328519152
1078.8280935471
911.0188295654477
770.7267978497061
653.5612932572657
556.0866868520108
475.3696460456489
408.8257823764261
354.1562123539271
309.3454337091661
272.6223539904616
242.5416940747347
217.8766621810095
197.6611804121129
181.1192516141373
167.6426595073705
156.7690260165928
148.1564252796165
141.5612382293924
136.8208126621167
133.8362250075987
132.5523676553381
132.9215659241709
134.7216397192241
136.1851138100917
134.9169452978231
130.0538891061343
121.2559074076932
108.5357398120412
1050931.487496273
172124.8671312762
55676.80818976902
26879.25341641429
16531.68320707279
11464.35635662396
8434.665427855371
6426.891462352964
5019.051896313464
3995.508584604997
3230.421342673939
2645.27073901385
2189.117505373967
1826.310444699882
1532.026395329905
1289.980716691169
1088.88206739477
920.7549320516032
779.8491113564558
661.8906350793573
563.4104489071947
481.5670100311676
413.8604159602799
358.0625413504694
312.1970249961018
274.5516847966153
243.6382625190083
218.2577278233213
197.4065005897043
180.2973882708781
166.3016219420681
154.9298791995777
145.8116971637832
138.677457180451
133.3399001123534
129.6761871237527
127.6114803772805
127.0954918024605
128.0592423325913
129.8659906938408
130.2325367164306
127.4898118098011
121.20364685147
111.1061294333697
97.73867589498809
1050215.102298545
171994.1380529788
55652.31340170797
26895.71991519905
16556.0248526492
11484.88580982279
8450.640302704265
6439.686324856682
5029.943870687097
4005.386518559128
3239.877491827422
2654.606992935827
2198.300673752652
1835.412482244004
1541.236964119862
1299.253961264352
1098.100412303777
929.745150341409
788.3907976636863
669.7235413940849
570.392833356225
487.5554090935231
418.7946947980063
361.9510699787814
315.1001306426727
276.5530223826959
244.8585280909666
218.7770855267838
197.3202940095001
179.6675824862223
165.1784268540459
153.3444419810981
143.7710364572655
136.1627850609122
130.3085926313562
126.0638112643618
123.3343891300873
122.0579136978771
122.1742748316426
123.5316990198115
124.8173452037296
123.8446759737877
119.6733393899866
112.0253236199223
100.8529433649001
87.37957747393909
1049462.510363908
171855.4068644543
55624.92781213333
26909.775960075
16578.65898993829
11503.75755890988
8465.235080487542
6451.203517688676
5039.722835621199
4014.240361008937
3248.325103019014
2662.903499144804
2206.537351531698
1843.680078730995
1549.554169447533
1307.67828480025
1106.526345711143
938.0177117724838
796.3178953993045
677.0961008471551
576.9992714958181
493.2982741156748
423.5916645886027
365.7891581522919
318.0170229542385
278.6214483886046
246.1620378048194
219.4209701057163
197.3731288863268
179.2047467381753
164.2462067968872
151.977443693409
141.9863854520281
133.9559472918525
127.6517730467704
122.9076879490737
119.6112104518272
117.686613466593
117.0709306212133
117.6794825796879
119.0884531197338
119.403512590348
117.0215924473815
111.4834271670272
102.5816629227125
90.7109925069248
77.72412176135721
1048671.032357992
171708.9609722176
55594.04335722877
26921.79413663232
16599.23883041827
11521.16004102174
8478.415496937592
6461.506280818078
5048.362035635672
4022.104411545901
3255.81434316693
2670.266305222074
2213.837282531566
1851.052816432797
1557.084270126353
1315.28287045677
1114.191576705037
945.5985240674421
803.6415274238282
683.9730101523879
583.2491760391342
498.7633984435998
428.2179076177377
369.5432002772288
320.9187221503602
280.7248702339591
247.5423405853168
220.1554584076152
197.5505881154868
178.8815615495843
163.4801888068916
150.8014010458152
140.4217870345282
132.0083920815932
125.3074033125726
120.131824913982
116.3503135470533
113.8729424507902
112.630893234056
112.5479841439226
113.4870068967532
114.4671912008041
113.5422004537413
109.7837816466841
102.9480913018813
93.0073052234968
80.95600341242069
68.94805468927484
1047837.927866939
171554.3161083725
55559.6843207566
26931.50243648559
16618.04128310834
11536.7873909451
8490.356834917837
6470.585318246861
5055.910408755245
4028.94087512529
3262.405557326342
2676.737613190331
2220.286780946376
1857.573892738686
1563.795468090303
1322.158434166067
1121.115756896907
952.5089096404029
810.372982342151
690.3530292523729
589.1075422459791
503.9585554407557
432.6441220648692
373.1834478971832
323.7753064093823
282.8377418470075
248.9718301323348
220.9727896430541
197.8236304621578
178.682965610265
162.8545891174778
149.7915393268326
139.049038360704
130.2833231620739
123.2262752473447
117.6734561181395
113.4752451271622
110.5260597500262
108.7482208123568
108.0691678402687
108.3854439701135
109.3787097639971
109.4830720414639
107.221842161659
102.1554967958967
94.13814462841755
83.52034894721628
71.86489198071847
61.03380957410229
1046964.119460552
171390.8912223422
55521.78492103958
26938.85811805202
16634.91597497558
11550.86841266053
8500.78428576202
6478.603752243431
5062.376530613657
4034.780732647724
3268.064955474214
2682.387800116245
2225.916541186852
1863.314807868204
1569.723153300209
1328.288195409484
1127.376320841555
958.7609404931127
816.5241657200028
696.2359920019871
594.5649297886515
508.8503868620593
436.8703958012097
376.6836997933764
326.5606318303024
284.9336910409961
250.4279755171594
221.8488871517666
198.1833913532726
178.5835273431749
162.3537261748991
148.9231568217613
137.843134193392
128.7517446691528
121.3706795036732
115.4826762060952
110.9226906124979
107.5696807534408
105.3342561362238
104.1417327871707
103.9042768731978
104.4765790624631
105.0904290593697
104.0398296770653
100.4654017016282
94.17667898903751
85.19675517912854
74.40053378929137
63.62639887279281
53.90947830691445
1046042.054675673
171218.8290015537
55480.04146261641
26943.91508751271
16649.85022899012
11563.3030135052
8509.880645763926
6485.327186560651
5067.909930811865
4039.645052686597
3272.806115818121
2687.194604774591
2230.795640781696
1868.297358278105
1574.927115877086
1333.699912001436
1132.962882284098
964.4190464668625
822.1011737602114
701.6259306308222
599.6129369693347
513.4246324891393
440.8659275004499
380.0392533469307
329.2515161633937
286.9898157998879
251.887586370946
222.7637585471101
198.6085446526514
178.5734546213366
161.9548012780587
148.1799794498381
136.7800973927937
127.3882574835552
119.7107857697377
113.5208636030208
108.6421340171933
104.9402997838848
102.3137680363629
100.6810929727459
99.9606399201848
100.0374475204827
100.627075963956
100.4333711119738
98.12002239414716
93.3090554079952
85.93208256313693
76.34992044455913
65.92621176753191
56.24606845728162
47.58667632897661
1045079.322798349
171036.6774569631
55434.51594326794
26946.47755490942
16662.84992944343
11574.12659350746
8517.574513722546
6490.893261550012
5072.322068713633
4043.667818066243
3276.658786394098
2691.155978614797
2234.91516917849
1872.586370573951
1579.423382090432
1338.442620634756
1137.896357330624
969.4744508101251
827.155549860473
706.5242860320886
604.2495225833329
517.6675781512338
444.6141734184749
383.2223390953765
331.8404710049456
288.9856934457339
253.3305316693466
223.6969408285867
199.0811776335473
178.6335538215937
161.6472469019958
147.5411024120308
135.8430908444267
126.1693303962936
118.2206902994704
111.7573474740913
106.5941183797735
102.5870124448332
99.62363664437054
97.61424662126841
96.47663193224857
96.11200655878287
96.36591939333825
96.58515338199769
95.30709493728756
91.75213220856197
85.80972757985299
77.57955929847628
67.87995404817946
58.28266599692122
49.64559274512764
42.08849520994224
1044059.967663134
170845.6624972293
55384.64267638468
26946.59393456344
16673.83464663079
11583.26730205406
8523.935250295121
6495.247361404116
5075.712020032981
4046.705878409682
3279.738517362093
2694.308015898003
2238.260046415357
1876.183558468526
1583.272061894309
1342.527047011782
1142.21590487079
973.9419717975782
831.6777820128837
710.9704043365269
608.4726118897119
521.572898956376
448.0985138292221
386.2158677426747
334.3028686890448
290.9123695700071
254.7388012721767
224.6306018071176
199.5830989301176
178.747581306439
161.4135112710964
146.9953036285819
135.0125440205326
125.0775903327572
116.8770959980099
110.1656563745155
104.7471698179782
100.4696877193228
97.21293558619473
94.87930510578066
93.3829685649324
92.63222587615577
92.50061861047254
92.71340936628975
92.16590664718665
89.69491510724924
84.98693902271908
78.07201542700788
69.3557824742593
60.05629299294115
51.47120170901237
43.8145045455806
37.40421200615305
1042997.587183935
170642.9233149146
55330.69196799427
26943.97340938741
16682.83597209171
11590.730660303
8528.844998629935
6498.479944947162
5078.033484227909
4048.830035534476
3281.942672600915
2696.74397860653
2240.870970188582
1879.066546560062
1586.482097881805
1346.006949450324
1145.927261907159
977.851792023089
835.6773050620181
714.9531712769297
612.310697800826
525.1360088505087
451.3099159320035
389.0021185342292
336.6221496557337
292.7482199706236
256.1028046484014
225.548775936273
200.0983500953947
178.899200574061
161.2386693447603
146.5262885721853
134.2766777559731
124.094383794297
115.6621218353182
108.7225760780037
103.0742348646652
98.55614080546202
95.04111676869827
92.42583148196027
90.62016227853618
89.53431646766587
89.05824225125272
89.027012352367
88.84814556682933
87.27137292518943
83.63444427886517
77.90215827610967
70.27270099011392
61.54121769333702
53.04330364814299
45.41268335496518
38.77007467248649
33.48169032811355
1041875.687656371
170430.9683552875
55271.78289794681
26938.97884422897
16689.70117979987
11596.53591613112
8532.351930474329
6500.457769589376
5079.387601458709
4049.996460368264
3283.325657500788
2698.393804384291
2242.816778245101
1881.277215892965
1589.028594452196
1348.896064982527
1149.07682871196
981.205003903524
839.1763014255331
718.4773891340081
615.7510325119658
528.3763097654559
454.2421513867256
391.5706118764677
338.7807217370265
294.4777952476676
257.4036344883841
226.4417319398761
200.6126612600053
179.0739666796619
161.1078782051125
146.1201586037029
133.6201497449433
123.2074473978922
114.5577207459672
107.4097470540198
101.5520884472668
96.81877765554039
93.07544810972691
90.2132297939488
88.13890503055826
86.76274904306459
85.98287643006351
85.66218311824525
85.52511148521127
84.59231657918484
81.89039917863126
77.19408696713789
70.62603683417306
62.65831780337258
54.38462705742274
46.81991224206673
40.09411643231838
34.49704028683431
30.25439414279751
1040697.337387842
170206.7253651902
55208.90425914919
26931.03930768278
16695.76991728851
11600.60893239059
8534.469831687093
6501.244919512452
5079.645388215617
4050.307613373828
3283.844311850315
2699.303729340431
2244.050752519679
1882.866078757298
1590.951766804307
1351.168857903935
1151.68085040554
984.0401899311918
842.17169469039
721.5583168403579
618.7946120124827
531.2798404392928
456.9074240541966
393.9141870045612
340.7675774700843
296.0843758877047
258.6271848924864
227.2929301576831
201.1164396754403
179.2589956244692
161.007910332908
145.7632600550974
133.029848672951
122.4021517002546
113.5512031558053
106.2095053445161
100.1619294362884
95.23432718981158
91.28790360478568
88.20847770434999
85.89905409042612
84.27005762345061
83.22495709519374
82.64141168710206
82.34766311153402
81.77720613209677
79.85702485064144
76.07356295880625
70.47557272768483
63.35547995761815
55.50036923092608
48.01593241417767
41.31259483377442
35.52726384919279
30.95318321282519
27.66207016306921
1039468.776533792
169970.7170072293
55140.9436185854
26920.62678990027
16699.8050355765
11604.2754151194
8535.165413508839
6500.850370478198
5078.873910515476
4049.64816616387
3283.594154512774
2699.433740446162
2244.614545300602
1883.802442529411
1592.290275922634
1352.862757748024
1153.714232373222
986.3741386588213
844.6942845298754
724.1893468292978
621.450923251636
533.844649971079
459.2911529104696
396.0396284861876
342.5751629958753
297.5570317574704
259.7579955964089
228.0896238733991
201.5951542972944
179.4449749891341
160.9270030130547
145.443343190566