/*--------------------------------*- C++ -*----------------------------------*\
| =========                 |                                                 |
| \\      /  F ield         | OpenFOAM: The Open Source CFD Toolbox           |
|  \\    /   O peration     | Version:  2006                                  |
|   \\  /    A nd           | Website:  www.openfoam.com                      |
|    \\/     M anipulation  |                                                 |
\*---------------------------------------------------------------------------*/
FoamFile
{
    version     2.0;
    format      ascii;
    class       volScalarField;
    location    "518";
    object      p;
}
// * * * * * * * * * * * * * * * * * * * * * * * * * * * * * * * * * * * * * //

dimensions      [0 2 -2 0 0 0 0];


internalField   nonuniform List<scalar> 
28643
(
0.2630675341165661
0.2569377521650462
0.2630675508733465
0.2510762347260254
0.2569377748252912
0.2630675741686652
0.2454696545318716
0.2510762575214397
0.2569378040105802
0.2630676026362263
0.2401241364709522
0.2454696806785364
0.2510762914556048
0.2569378390829992
0.2630676264502977
0.2350063369178341
0.2401241664029353
0.2454697195580862
0.2510763336149494
0.2569378693275453
0.2630676251384621
0.2300879780717812
0.2350063717499448
0.2401242105230585
0.2454697678930164
0.2510763712166362
0.2569378709945326
0.2630675689647075
0.2253387447971312
0.2300880143714381
0.2350064214857703
0.2401242656507678
0.2454698122030572
0.2510763784497537
0.25693780961168
0.2630674255866453
0.2207288826436337
0.2253387871993691
0.2300880692708119
0.2350064826156743
0.2401243177861593
0.2454698258212256
0.2510763181617225
0.2569376475389467
0.2630671683440873
0.2162496873744507
0.2207289276967616
0.2253388483642181
0.2300881384576577
0.235006543417774
0.2401243410829563
0.2454697704467418
0.2510761493372835
0.2569373527999863
0.2630667786926787
0.2118789978363527
0.2162497366788662
0.2207289943889243
0.2253389240186355
0.2300882088798301
0.2350065792341242
0.2401242981962953
0.2454696036712282
0.2510758356911793
0.2569369014121731
0.2630662441401994
0.2076099194659395
0.2118790511597442
0.2162498092769861
0.2207290779095806
0.2253390040791446
0.2300882586900173
0.2350065559679001
0.2401241478118945
0.245469286299496
0.2510753481082957
0.2569362760148139
0.2630655558303693
0.2034350806461683
0.2076099767164525
0.2118791296768477
0.2162499001745063
0.2207291678767015
0.2253390684884062
0.2300882570194492
0.235006435137634
0.2401238502599496
0.2454687850062023
0.2510746639360029
0.2569354630338668
0.2630647069199648
0.1993482204462071
0.2034351418242266
0.2076100610928179
0.2118792281102402
0.2162499997915701
0.2207292467596999
0.2253390906285836
0.230088169838767
0.2350061789939035
0.2401233693912636
0.2454680717377686
0.2510737646503838
0.2569344514170013
0.2630636922498729
0.1953441145939948
0.1993482856136154
0.203435232057739
0.2076101669986234
0.2118793375541689
0.2162500925686618
0.2207292912606974
0.2253390406737897
0.2300879623980669
0.2350057511153582
0.2401226732426294
0.2454671229938331
0.2510726344866422
0.2569332312350962
0.2630625083837543
0.1914196033189972
0.1953441840250091
0.19934838180761
0.2034353454262625
0.2076102860818958
0.2118794441986291
0.2162501583331008
0.2207292760661051
0.2253388881210741
0.2300875994559279
0.2350051170629355
0.2401217332297964
0.2454659176859716
0.2510712588691483
0.2569317944246844
0.2630611544011022
0.1875715510291557
0.1914196768770597
0.1953442864312613
0.1993485027546744
0.2034354740444254
0.2076104060285076
0.2118795306248836
0.2162501756890622
0.2207291747227465
0.2253386005252196
0.2300870461663226
0.2350042453453382
0.2401205240473066
0.2454644366623096
0.2510696247946983
0.2569301344005685
0.263059632514005
0.1837948957899684
0.1875716286858768
0.1914197854462909
0.1953444152608161
0.199348640986282
0.2034356068641434
0.2076105117653883
0.2118795788933068
0.216250122178608
0.2207289580592899
0.2253381439768768
0.2300862687959022
0.2350031064495556
0.2401190212065528
0.2454626613824661
0.2510677204586508
0.2569282478407153
0.2630579493383565
0.1800879056421383
0.1837949775867737
0.1875717433596431
0.1914199221278958
0.1953445634478584
0.1993487865289821
0.2034357307950601
0.2076105883326877
0.2118795702343083
0.2162499722013286
0.2207285943087938
0.2253374848300509
0.2300852358027064
0.2350016729505819
0.2401172021745238
0.2454605750684795
0.2510655367854505
0.2569261345750214
0.2630561167726016
0.1764479454930908
0.1800879912181196
0.183795098436084
0.1875718878207505
0.1914200802011292
0.1953447220418249
0.199348927819941
0.203435833416323
0.2076106202393657
0.2118794825854178
0.2162496967314296
0.2207280505467667
0.2253365898671168
0.2300839161980233
0.2349999174355552
0.2401150441040737
0.2454581621548861
0.2510630674963706
0.2569238000175362
0.2630541535908704
0.1728715432629534
0.1764480363170001
0.1800881183569079
0.1837952507772302
0.1875720556163311
0.191420251609384
0.1953448805139439
0.1993490539171229
0.2034359021014371
0.2076105887627956
0.2118792900167646
0.2162492646278238
0.2207272936638433
0.2253354272214867
0.2300822806039963
0.234997814059714
0.2401125268790734
0.2454554104855393
0.2510603113059098
0.2569212551446898
0.2630520864815159
0.1693610640367353
0.1728716375372025
0.1764481699137713
0.1800882790494856
0.1837954283775664
0.1875722394797193
0.191420427089532
0.195345027576353
0.1993491552781746
0.2034359211701227
0.2076104711398241
0.2118789637561998
0.2162486436012307
0.2207262907339813
0.2253339646492666
0.2300802989309679
0.2349953366737111
0.2401096308189683
0.2454523110316754
0.2510572721962288
0.2569185194548008
0.263049951838224
0.1659087273389201
0.1693611632021237
0.172871777489153
0.1764483381952218
0.1800884667920731
0.1837956246520352
0.1875724316232563
0.1914205952559858
0.1953451556702835
0.1993492196862366
0.2034358709334464
0.2076102413107764
0.2118784731094143
0.2162478008843496
0.2207250088714607
0.2253321710669354
0.2300779429007613
0.2349924619278221
0.2401063412645937
0.2454488608382641
0.2510539621478154
0.2569156209961949
0.2630477968124051
0.1625178723580568
0.1659088306231271
0.1693613095345599
0.1728719545018856
0.1764485357651607
0.1800886754497799
0.1837958331438903
0.1875726223127045
0.1914207479364215
0.1953452589479031
0.1993492297578607
0.2034357281667722
0.2076098706868207
0.2118777861810147
0.2162467032373701
0.2207234152004302
0.2253300144278687
0.2300751836055819
0.2349891672563921
0.2401026459211251
0.2454450628733023
0.2510504015746594
0.256912599695713
0.2630456811760956
0.1591833361641367
0.1625179801399781
0.1659089835705396
0.1693614941527396
0.1728721625522819
0.1764487565823075
0.1800888987638766
0.1837960459593244
0.1875728025899059
0.1914208847316727
0.1953453230202431
0.199349164917601
0.2034354667105091
0.207609328838708
0.211876870101655
0.2162453171851985
0.2207214767633407
0.225327464567526
0.2300719955815068
0.2349854353447735
0.2400985407308545
0.2454409296441697
0.2510466225217178
0.2569095072230351
0.2630436784152798
0.1559068049391345
0.1591834485497872
0.1625181397905293
0.1659091769421913
0.1693617118497717
0.1728723963736542
0.1764489945297196
0.1800891313273153
0.1837962539604526
0.1875729726397681
0.1914209971659609
0.1953453282264077
0.19934900171856
0.2034350580285773
0.2076085838304625
0.21187569136291
0.216243608864882
0.220719160859858
0.2253244907898046
0.2300683540530336
0.2349812519289405
0.2400940269011878
0.2454364831617626
0.2510426692072807
0.2569064106634068
0.2630418775441492
0.1526865658086297
0.1559069219243516
0.159183615106708
0.1625183416935508
0.1659094053069435
0.1693619576860223
0.1728726506423569
0.176449245965085
0.1800893658199413
0.1837964546906189
0.187573129740435
0.1914210659735431
0.1953452534132624
0.199348713787008
0.2034344715986387
0.2076076026499853
0.211874215830347
0.2162415444819014
0.2207164353673088
0.225321066112008
0.2300642403683001
0.2349766114474574
0.2400891179581269
0.2454317591336591
0.2510386012834633
0.2569033939725596
0.263040384157916
0.1495214099315321
0.1526866873947967
0.1559070954485294
0.1591838258543477
0.1625185805315208
0.1659096643329621
0.1693622272317655
0.1728729229688149
0.1764495063417404
0.1800895971774925
0.1837966508059552
0.1875732581101181
0.191421071608065
0.1953450750075047
0.1993482724666038
0.203433675353357
0.2076063513503872
0.2118724091480337
0.2162390904002834
0.2207132696034572
0.2253171646196278
0.2300596389801422
0.2349715146271968
0.2400838364141519
0.2454268068070319
0.2510344935178497
0.2569005558153443
0.2630393000681903
0.1464104673922549
0.1495215367184841
0.1526868680168097
0.1559073151384317
0.1591840755954271
0.1625188523711002
0.1659099502362203
0.1693625189009069
0.1728732099154933
0.1764497705346079
0.1800898302453279
0.1837968335313827
0.1875733388751326
0.1914209929441898
0.1953447663298369
0.1993476469467559
0.2034326359670658
0.2076047954782438
0.2118702368876825
0.2162362140645924
0.2207096351114919
0.2253127669985171
0.2300545442012641
0.2349659752409041
0.2400782218346961
0.2454216930897635
0.2510304420583178
0.256898017659841
0.2630386960830914
0.1433514008965342
0.1464105989621334
0.1495217247519747
0.1526870968766994
0.1559075758749912
0.1591843608156138
0.1625191540487043
0.1659102623756012
0.1693628303201974
0.1728735060988115
0.1764500427584898
0.1800900623875815
0.1837969836378675
0.1875733530557107
0.1914208058006862
0.1953442984874128
0.1993468050090392
0.2034313192738077
0.207602900266695
0.2118676652987114
0.216232884466452
0.220705507082894
0.2253078576361103
0.2300489569228595
0.2349600175116345
0.2400723280685354
0.2454165040580179
0.2510265602925812
0.2568959109702278
0.2630387259211727
0.1403413252893371
0.1433515378429403
0.146410794386772
0.1495219628933727
0.1526873687689638
0.1559078745250376
0.1591846789304406
0.1625194855735735
0.1659105993671582
0.1693631561758913
0.1728738143977731
0.1764503233787665
0.1800902763308141
0.1837970834859622
0.1875732790252715
0.1914204831639405
0.1953436403509986
0.199345713032285
0.2034296905759209
0.2076006313083911
0.211864661784595
0.216229073626164
0.2207008656305836
0.2253024314264717
0.2300428924934986
0.2349536841805162
0.2400662289963973
0.2454113459675525
0.2510229873290236
0.256894342873954
0.2630403112468572
0.1373823146237459
0.1403414674794598
0.1433517410933637
0.1464110420974057
0.1495222463572054
0.1526876809661839
0.1559082090570393
0.1591850305688225
0.1625198465622588
0.1659109569917132
0.1693634971103735
0.1728741396376158
0.1764505984844945
0.1800904552636617
0.1837971139137264
0.1875730919758085
0.1914199956315095
0.1953427595874106
0.1993443368608121
0.203427715217723
0.2075979550095317
0.2118611961426449
0.2162247574923769
0.2206956977868354
0.2252964906837672
0.2300363775579203
0.2349470325668552
0.2400600176380117
0.2454063479370835
0.2510198802765247
0.2568934245036708
0.263045038266955
0.1344728849082216
0.1373824621036505
0.1403416787471414
0.1433519987562429
0.1464113371762301
0.1495225726749219
0.1526880319262658
0.1559085807168649
0.1591854162256763
0.1625202339473336
0.165911335476826
0.1693638615786081
0.1728744732440506
0.176450853034227
0.1800905822783833
0.1837970525282383
0.1875727643598614
0.1914193120316534
0.1953416224551566
0.1993426418146255
0.2034253591071237
0.2075948396845714
0.2118572414629523
0.2162199180100185
0.220689999219037
0.2252900534195272
0.230029458185261
0.2349401432494252
0.2400538131919524
0.2454016659509501
0.2510173787177409
0.256893778593292
0.2630532261865303
0.1316112334218518
0.1344730378902229
0.1373826814582261
0.1403419467832877
0.143352306023577
0.1464116775012795
0.1495229408151164
0.1526884234752111
0.1559089908644148
0.1591858339192101
0.1625206483245695
0.1659117439577024
0.1693642469981358
0.1728747995496585
0.1764510718593686
0.1800906371229927
0.1837968738502034
0.1875722665250982
0.1914183997619636
0.1953401950626234
0.1993405938389445
0.2034225896274906
0.207591256400929
0.2118527759151064
0.2162145444685714
0.22068377705475
0.2252831491614036
0.2300221960746531
0.2349331171160936
0.2400477562130104
0.2453974773112192
0.2510155630417883
0.2568973458335976
0.2630628341624309
0.1287964053362936
0.1316113926903258
0.1344732656324091
0.137382959879144
0.140342266845537
0.1433526610684868
0.146412062454841
0.1495233530589932
0.1526888577497268
0.1559094384656381
0.1591862845524026
0.1625210987469666
0.1659121834409164
0.1693646383287538
0.1728751053996061
0.1764512374728888
0.1800905967331544
0.1837965499749427
0.1875715671310246
0.1914172254829213
0.1953384431631544
0.1993381596734785
0.2034193765244455
0.2075871805839928
0.2118477841060634
0.2162086366279407
0.2206770514746442
0.2252758281459027
0.2300146786651457
0.2349260827733319
0.240042017835134
0.2453939549029226
0.2510147833014081
0.2569056069878595
0.2630715991811481
0.1260332579746218
0.1287965700451607
0.1316116291879375
0.1344735548274203
0.1373832926362923
0.1403426374785161
0.1433530636875778
0.1464124948057297
0.1495238122491528
0.1526893346600187
0.1559099242012237
0.1591867771550899
0.1625215886450035
0.1659126415499898
0.1693650229601432
0.1728753753471117
0.1764513285530465
0.1800904348241018
0.1837960510467467
0.1875706337834476
0.1914157555716837
0.1953363338013926
0.1993353084448137
0.2034156932689385
0.207582593308057
0.2118422598854391
0.2162022051585622
0.2206698586755362
0.2252681582360443
0.2300070142050406
0.23491919228119
0.2400367943448516
0.2453912169266428
0.2510170330155021
0.2569167141072711
0.2630789393153999
0.1233148012931446
0.1260334285319056
0.128796815246759
0.1316119293539538
0.1344739006552622
0.1373836785502455
0.1403430589109677
0.1433535170664091
0.1464129780465219
0.1495243193446775
0.1526898549899155
0.1559104559642124
0.1591873175997888
0.1625221083680414
0.1659131068930051
0.1693653878122495
0.1728755909620851
0.1764513214022937
0.1800901235106074
0.1837953458687214
0.1875694335724246
0.1914139570569035
0.1953338352346113
0.1993320121159931
0.2034115183859587
0.2075774838451294
0.2118362068753155
0.2161952760448158
0.2206622540106558
0.2252602336325573
0.2299993406737819
0.2349126297156411
0.2400322971698294
0.2453895256619384
0.2510247455701403
0.2569275399352866
0.2630853207820625
0.1206401499560943
0.1233149784914516
0.1260336826276303
0.1287971268630813
0.1316122887645968
0.134474302230552
0.1373841182538532
0.1403435347965006
0.1433540253225534
0.146413514111272
0.1495248759311179
0.1526904251511222
0.1559110434146959
0.1591878988923233
0.1625226479895519
0.1659135683063616
0.1693657164390358
0.1728757301241174
0.1764511893159843
0.1800896326314871
0.1837944024773753
0.1875679339339753
0.1914117982893712
0.1953309190906007
0.1993282476147806
0.2034068376976498
0.2075718503011155
0.2118296426428581
0.2161878924721462
0.2206543146613873
0.2252521706091821
0.2299918205448461
0.2349066069769278
0.2400286913758143
0.2453905001570739
0.2510369903069946
0.2569367021237003
0.2630914966883547
0.1180131770263302
0.1206403332748684
0.123315242093137
0.1260340056253799
0.1287975004186009
0.1316127067890731
0.1344747605517698
0.1373846157985326
0.1403440698219754
0.1433545912911706
0.1464141056038691
0.1495254884081089
0.1526910575437372
0.155911683742772
0.1591885121422459
0.1625231981525259
0.1659140115695689
0.1693659893113805
0.1728757687245403
0.1764509043968292
0.1800889317429471
0.183793188975633
0.1875661034031332
0.1914092502225783
0.1953275605093817
0.1993239980017358
0.2034016450508595
0.2075657035205145
0.2118226005973305
0.216180118052516
0.2206461417869194
0.2252441164138154
0.2299846486970558
0.2349013617104725
0.2400261376518307
0.2453970611337423
0.2510501501794167
0.2569444548519224
0.2630981144153083
0.1154334655555824
0.1180133668038597
0.1206406065425762
0.1233155771313147
0.1260343930064701
0.1287979356989343
0.1316131848300864
0.1344752800737012
0.1373851764607407
0.1403446677435819
0.1433552185298192
0.1464147592082546
0.1495261696012979
0.1526917540232554
0.1559123678662001
0.1591891498531068
0.1625237469081588
0.165914419391642
0.1693661838509092
0.172875679914793
0.1764504367506531
0.1800879893937866
0.1837916743323791
0.1875639127733829
0.1914062873964287
0.1953237412494088
0.1993192541064658
0.203395946048805
0.2075590689467059
0.2118151330474482
0.2161720388540385
0.2206378634787421
0.2252362428761883
0.2299780474086185
0.2348970943472173
0.2400256061508444
0.2454098945513613
0.2510616250275947
0.2569516978260801
0.2631055212567616
0.1128955614195163
0.1154336623166155
0.1180136496734921
0.1206409542652404
0.123315979205597
0.1260348448048458
0.1287984345795051
0.1316137277394751
0.1344758666489057
0.1373858048291662
0.1403453329876672
0.1433559141083993
0.1464154880170283
0.1495269242102393
0.152692506235825
0.1559130896055951
0.1591898023317152
0.162524279051395
0.1659147713386057
0.1693662754984606
0.1728754360941035
0.1764497568343562
0.1800867756577118
0.1837898294814974
0.1875613361402122
0.191402889988397
0.1953194490623353
0.1993140172675968
0.2033897598338386
0.207551989571978
0.2118073134835008
0.2161637669167643
0.2206296352855575
0.2252287543896765
0.2299722681084646
0.2348939122301792
0.2400302869660443
0.2454253570101559
0.2510711681359266
0.2569593437893217
0.2631136708222723
0.1104048533282799
0.1128957646341457
0.1154339552321884
0.1180140095994027
0.1206413720628403
0.1233164486014443
0.1260353632395897
0.1287990023746557
0.1316143419381463
0.1344765256911568
0.1373865062165672
0.1403460731408931
0.1433566915128704
0.1464162986909778
0.1495277459326916
0.1526933087451761
0.1559138414505879
0.1591904565992519
0.1625247764018263
0.1659150448315924
0.1693662376818036
0.1728750081439569
0.1764488346161432
0.1800852613590842
0.1837876283962236
0.1875583527636023
0.1913990441392494
0.1953146828255082
0.1993083019219988
0.2033831218420563
0.2075445283229046
0.2117992400263637
0.2161554406026596
0.2206216419731432
0.2252218821709578
0.2299675431949349
0.2348923053737625
0.2400426991463468
0.2454393969600419
0.2510797517928557
0.2569680036886115
0.2631221156258698
0.1079541635977148
0.1104050637357192
0.1128960679653326
0.1154343279516344
0.1180144423847894
0.1206418606604667
0.1233169878968624
0.1260359540099853
0.1287996460969028
0.1316150337146299
0.1344772633402561
0.1373872885586169
0.1403469020935059
0.1433575592647025
0.1464171873270586
0.1495286306857839
0.1526941559505665
0.155914612702777
0.1591910966536035
0.1625252182776357
0.1659152151075346
0.1693660432379017
0.1728743680038206
0.1764476424870818
0.1800834211427999
0.1837850498197805
0.1875549474580181
0.1913947461173702
0.1953094523973565
0.1993021372087788
0.2033760863920394
0.2075367714490512
0.2117910361943203
0.216147227791047
0.2206140971479969
0.2252158896934319
0.2299640205115025
0.2348951968904698
0.2400598716831792
0.2454509992293485
0.2510885667723338
0.2569778264076198
0.2631300551863244
0.1055472422484547
0.1079543816232626
0.1104053775954877
0.1128964544369737
0.1154347763292318
0.1180149489964048
0.1206424231064199
0.1233176031710606
0.1260366246386263
0.1288003728486073
0.131615809985916
0.134478087587292
0.1373881660726962
0.1403478303204845
0.1433585155922288
0.1464181510712713
0.1495295743977139
0.1526950392235757
0.1559153895742958
0.159191703911912
0.162525581931503
0.1659152565772628
0.1693656645665264
0.1728734878943093
0.1764461543655891
0.1800812329937686
0.1837820776949396
0.1875511147637567
0.1913900029912114
0.1953037827622211
0.1992955707414849
0.2033687298590329
0.2075288296360491
0.2117828544870686
0.2161393252598869
0.2206072439197927
0.2252110422391986
0.2299620138353331
0.234906265190341
0.2400766363396976
0.2454610916255399
0.2510985071948784
0.2569884609716291
0.2631364015037043
0.1031849926340974
0.1055474672763506
0.1079547067348665
0.1104057773989113
0.1128969199528937
0.1154353016303752
0.1180155328575321
0.1206430659113977
0.1233183024972028
0.1260373830216269
0.1288011905552471
0.1316166791254563
0.1344790123836693
0.1373891512443388
0.1403488579907037
0.1433595589068779
0.1464191877138931
0.1495305707177135
0.1526959470815352
0.1559161556039324
0.1591922576323091
0.1625258433009756
0.1659151430377916
0.169365075493608
0.1728723433970809
0.1764443494212709
0.1800786809549363
0.1837787054046944
0.1875468594310227
0.1913848356100518
0.1952977151587957
0.1992886705320121
0.2033611521813088
0.2075208417722959
0.2117748764398123
0.2161319583056701
0.2206013565493035
0.22520753170185
0.2299636612713375
0.234924268158417
0.2400907144547144
0.2454711179078811
0.2511099261300525
0.2569991066081034
0.2631398734640497
0.1008601782202941
0.1031852257098832
0.1055478033758287
0.1079551210373894
0.1104062589554985
0.1128974662323077
0.1154359076728036
0.1180162008549531
0.1206437977305848
0.1233190945482194
0.1260382379991433
0.1288021083940012
0.1316176545294983
0.1344800528574283
0.1373902463680138
0.1403499848284655
0.1433606887908105
0.1464202928237007
0.1495316100636799
0.1526968650876304
0.155916892105442
0.1591927355790433
0.1625259778289228
0.1659148494753553
0.1693642515259003
0.1728709128770047
0.1764422102495568
0.1800757571033796
0.1837749360334767
0.1875421992940287
0.1913792809392996
0.1952913116781616
0.199281527877343
0.2033534806617273
0.2075129754783297
0.2117673123694526
0.2161253811417393
0.2205967232586002
0.2252055236845388
0.2299730267631005
0.23494372389713
0.2401026101275006
0.2454822649467057
0.2511225619134005
0.2570085960166509
0.2631392810560299
0.09858297370294737
0.1008604186050189
0.1031855734289722
0.1055482320027374
0.1079556207391272
0.110406824192215
0.1128980976097102
0.1154366017706652
0.1180169621422352
0.1206446280295893
0.1233199891181387
0.1260391996892022
0.1288031401232633
0.1316187536555204
0.134481214329998
0.1373914520212956
0.1403512120997412
0.1433619027937718
0.1464214590978479
0.1495326804328899
0.152697776758386
0.1559175787454586
0.1591931148618259
0.1625259615976234
0.1659143523894085
0.1693631722675347
0.172869180238077
0.1764397298730403
0.1800724640529212
0.1837707851703789
0.1875371677297456
0.1913733953458713
0.1952846554631864
0.1992742601426371
0.203345870892129
0.2075054274299227
0.2117604008071415
0.2161198782818997
0.2205935540691767
0.2252063155994305
0.2299911583492699
0.2349606065838443
0.2401138989418597
0.2454951086162813
0.2511355916030608
0.2570155031430065
0.2631343547765468
0.09633884996847036
0.09858322286696694
0.1008607782206772
0.103186016819587
0.1055487492769954
0.1079562081796231
0.1104074777646132
0.1128988219061392
0.1154373936693765
0.1180178269859569
0.1206455676041398
0.1233209972577967
0.1260402823758015
0.1288043041554084
0.1316199850319499
0.1344824976248697
0.1373927711314686
0.140352539513922
0.1433631958023021
0.1464226765859611
0.1495337671823748
0.1526986635822878
0.1559181944058096
0.1591933730232779
0.1625257723873113
0.1659136321016612
0.1693618209915632
0.17286713731611
0.1764369088317241
0.1800688151262021
0.183766283479375
0.1875318167434341
0.1913672561773194
0.1952778565692686
0.199267012987998
0.2033385074397995
0.2074984232712292
0.211754407968338
0.2161157462814824
0.2205919107431254
0.2252141647966194
0.2300128627121729
0.2349746051615071
0.2401260724850307
0.2455094870122834
0.2511477453305709
0.2570184304186039
0.2631272515803791
0.0941416379098724
0.09633910699751198
0.0985835946378809
0.1008612373928638
0.1031865521111274
0.1055493579176004
0.1079568885067834
0.1104082278375776
0.112899649514511
0.115438294420272
0.1180188069822733
0.1206466284552214
0.1233221339333716
0.1260415051093141
0.1288056115202262
0.1316213504957635
0.1344839070149719
0.1373942053921571
0.1403539640397824
0.1433645600194233
0.1464239329865386
0.1495348541732602
0.1526995064229901
0.1559187182087189
0.1591934891479056
0.1625253912128286
0.1659126724857761
0.1693601907005637
0.1728647857195609
0.1764337607404646
0.1800648397096394
0.1837614795882433
0.1875262187909462
0.1913609665294509
0.1952710512662945
0.1992599602339211
0.2033316047529837
0.2074922155800058
0.2117496271184633
0.2161132020639076
0.22059252847245
0.2252321795161655
0.2300324077559193
0.2349873120055178
0.2401399730010674
0.2455245507967541
0.2511574608238094
0.2570168772725942
0.263121546831999
0.0919787500596404
0.09414190367468617
0.09633949166707753
0.09858406895408682
0.1008617923627557
0.1031871823149086
0.1055500635478357
0.1079576703813732
0.1104090853614305
0.1129005924152586
0.1154393166080238
0.1180199151036877
0.1206478263982699
0.1233234189319676
0.1260428806828832
0.1288070658471017
0.1316228552098419
0.134485446007489
0.1373957539543752
0.1403554802366916
0.1433659854367983
0.1464252141370219
0.1495359238695954
0.1527002859231893
0.155919130676528
0.1591934453102297
0.162524802789515
0.1659114671980591
0.1693582820022455
0.1728621371472331
0.1764303121110821
0.1800605831984189
0.1837564421655743
0.1875204716057754
0.1913546557778345
0.1952644051733045
0.199253306720222
0.203325404997423
0.2074870819946899
0.2117463627586735
0.2161122746616749
0.2205996650164289
0.2252557378679669
0.2300485208439013
0.2350005180583566
0.2401555661849807
0.2455389146444548
0.2511632138742203
0.2570129238278034
0.263117782985981
0.08985962839093443
0.09197902460378092
0.09414230089159753
0.09633998324986986
0.0985846423301134
0.1008624466698604
0.1031879134670847
0.1055508752999656
0.1079585653709157
0.1104100630500011
0.1129016642430616
0.1154404741287049
0.1180211677545917
0.1206491821215596
0.123324866840647
0.1260444146953365
0.128808673770103
0.1316245046298617
0.1344871159686008
0.1373974134983134
0.1403570802991664
0.1433674600473539
0.1464265047390119
0.1495369590954134
0.1527009842990095
0.155919415033715
0.1591932271662949
0.1625240014391729
0.1659100172788805
0.1693561073355338
0.1728592187616822
0.1764266079694286
0.1800561121419443
0.1837512647890245
0.1875146987432136
0.1913484817361127
0.1952581137178717
0.1992472854657333
0.2033201749720162
0.2074833267961216
0.2117448354810368
0.2161135108130031
0.220617683259783
0.225277852878803
0.2300626844177601
0.2350153365879266
0.2401719751066096
0.2455508750924679
0.251164450310521
0.2570108732971498
0.2631124439018481
0.08777415890553761
0.08985991230649057
0.09197943560078413
0.09414280823087433
0.09634057835547076
0.09858531851347387
0.10086320694371
0.1031887551556763
0.1055518053944759
0.1079595871783478
0.1104111755135941
0.1129028800219103
0.1154417842554832
0.1180225866071175
0.1206507121206753
0.1233264851201923
0.1260461151316327
0.1288104424813191
0.1316263019938829
0.1344889156311632
0.1373991785189627
0.140358754665719
0.143368970774611
0.1464277893887831
0.1495379433458184
0.1527015858884087
0.1559195581055368
0.1591928301735805
0.1625229890736159
0.1659083354347272
0.1693536923879513
0.1728560730056906
0.176422711212218
0.1800515163115631
0.1837460664863617
0.1875090519149206
0.1913426329001037
0.1952524025087709
0.1992421562170002
0.2033162059645142
0.2074812601325044
0.211745068808878
0.2161210140290527
0.2206427668773182
0.2252962308282522
0.2300769066756239
0.2350318566923932
0.2401876757180554
0.2455588423403186
0.2511634208507302
0.2570121565791298
0.2631025223933277
0.08572956670543821
0.08777445242748795
0.08986033706754838
0.09197996120621071
0.09414342223639115
0.09634128138039516
0.09858610447692508
0.1008640832989644
0.1031897202633492
0.1055528684059568
0.1079607513585321
0.1104124386678322
0.1129042579747816
0.1154432695382974
0.118024189693896
0.1206524256631955
0.1233282832380129
0.1260479909849938
0.1288123774863254
0.1316282484606548
0.1344908418203782
0.1374010416625252
0.1403604924391347
0.1433705042129783
0.146429053618672
0.149538862809118
0.152702078928238
0.1559195566517937
0.1591922572058938
0.1625217786601976
0.1659064475345028
0.169351079974199
0.1728527630154084
0.1764187109290123
0.1800469120625759
0.1837409941988077
0.1875037138311944
0.1913373276728998
0.1952475239433407
0.1992382021890116
0.2033138126414937
0.2074810971776977
0.2117475813035564
0.2161396254444183
0.2206673314723671
0.2253120818153683
0.2300925134237432
0.2350491602502362
0.2402008170768414
0.2455624594982936
0.2511650322686361
0.2570130652806872
0.2630874041484504
0.08372190240473042
0.08572986960079362
0.0877748921187582
0.08986088011488051
0.09198059838260042
0.09414414750445183
0.09634210001299692
0.09858701078793722
0.1008650893861331
0.1031908243082004
0.1055540809812577
0.1079620750518256
0.1104138716649219
0.1129058217657848
0.1154449498495192
0.1180259881603498
0.1206543338805007
0.1233302719889723
0.1260500497527736
0.1288144821425602
0.1316303428981059
0.1344928893087897
0.1374029943761814
0.1403622826089518
0.1433720479365795
0.1464302850474935
0.1495397066908131
0.1527024615056644
0.1559194147465343
0.1591915221040524
0.1625203968175625
0.1659043963916617
0.169348331356381
0.1728493751386266
0.1764147193905095
0.1800424420592466
0.1837362262494697
0.1874988973670548
0.1913328129326149
0.1952437572640527
0.1992357273628279
0.2033133123066805
0.2074828330687696
0.2117564503249478
0.216166170053931
0.2206881025864523
0.22532751985169
0.2301096736621308
0.235065582263098
0.2402098353063269
0.2455646382835388
0.2511709042133757
0.2570100449396999
0.2630670061185071
0.08174812429824499
0.08372221561998217
0.08573032354931434
0.08777545488592749
0.08986153782364258
0.0919813523098814
0.09414499208624127
0.09634304545652719
0.09858805168372119
0.1008662417149152
0.1031920850342691
0.1055554612872781
0.1079635782908901
0.110415499037664
0.1129075931575107
0.1154468380660725
0.1180279943810153
0.1206564494387899
0.1233324609928446
0.1260522970299961
0.1288167578923652
0.1316325826693265
0.1344950519466818
0.1374050278248954
0.140364114773025
0.1433735913890386
0.1464314746965213
0.1495404752787181
0.1527027392724871
0.1559191473848872
0.159190652410708
0.1625188864559102
0.1659022432822582
0.1693455333542378
0.1728460217225424
0.1764108782812195
0.180038282208712
0.1837319712782453
0.1874948449668705
0.1913293634756102
0.195241401358218
0.1992350554662694
0.203314905637548
0.2074870078542742
0.2117767312368031
0.2161928064932415
0.2207059126362265
0.2253440126060536
0.2301274079299492
0.2350791743176542
0.240214886237907
0.2455707473836604
0.25117689122755
0.2570024158265429