/*--------------------------------*- C++ -*----------------------------------*\
| =========                 |                                                 |
| \\      /  F ield         | OpenFOAM: The Open Source CFD Toolbox           |
|  \\    /   O peration     | Version:  2006                                  |
|   \\  /    A nd           | Website:  www.openfoam.com                      |
|    \\/     M anipulation  |                                                 |
\*---------------------------------------------------------------------------*/
FoamFile
{
    version     2.0;
    format      ascii;
    class       surfaceScalarField;
    location    "518";
    object      phi;
}
// * * * * * * * * * * * * * * * * * * * * * * * * * * * * * * * * * * * * * //

dimensions      [0 3 -1 0 0 0 0];
oriented        oriented;


internalField   nonuniform List<scalar> 
56802
(
8.622023285777542e-08
-3.381322734435508e-09
8.9914851842006e-08
-3.662475909931591e-09
2.908862570559419e-07
-1.487035006287533e-08
9.381394300644333e-08
-3.956347984770448e-09
3.034338177903447e-07
-1.616328128721231e-08
5.522025583523135e-07
-3.677906930921785e-08
9.784183701922176e-08
-3.993746925286909e-09
3.166786067202033e-07
-1.728907918294415e-08
5.761277836156427e-07
-4.003719128363115e-08
8.797143233627731e-07
-7.168673958722432e-08
1.018578624343319e-07
-4.695657716862814e-09
3.303599962304071e-07
-1.761789483795828e-08
6.013916808732189e-07
-4.264675410398203e-08
9.178671253960552e-07
-7.814860770708129e-08
1.272437607980661e-06
-1.217103743161283e-07
1.057911991025764e-07
-3.248615488204866e-09
3.439955482984173e-07
-1.935355196220774e-08
6.274872314412223e-07
-4.365574774047802e-08
9.581893127586124e-07
-8.30510474893827e-08
1.327306753515591e-06
-1.32980000456349e-07
1.706104140480545e-06
-1.877066046704787e-07
1.095820895938085e-07
-4.558685031229642e-09
3.573472987134938e-07
-1.557169040388147e-08
6.534898802989821e-07
-4.645772821116293e-08
9.99842796710811e-07
-8.52508525766852e-08
1.385464439547001e-06
-1.412801984133494e-07
1.779153969367094e-06
-2.060047610823394e-07
2.148142034336616e-06
-2.699803841165684e-07
1.132028374255131e-07
-2.845168626383374e-09
3.702130493465335e-07
-1.857700971666183e-08
6.789453614915052e-07
-3.991959207936196e-08
1.041340117083666e-06
-8.888927218044846e-08
1.445610806894587e-06
-1.453490622747147e-07
1.857140941487321e-06
-2.193215664775157e-07
2.240427159520091e-06
-2.982705348825599e-07
2.585770133908157e-06
-3.689964282739088e-07
1.166792897996201e-07
-3.473717007488796e-09
3.824994461755342e-07
-1.396862148697932e-08
7.03469389723359e-07
-4.43420271838527e-08
1.081937037622691e-06
-7.957919803827018e-08
1.505537575635244e-06
-1.496471910112399e-07
1.938110146875592e-06
-2.262742457398107e-07
2.340012188772902e-06
-3.189447294954691e-07
2.698355179500584e-06
-4.108444783432013e-07
3.024282564260354e-06
-4.852727793910189e-07
1.200053942884804e-07
-3.32398258659545e-09
3.942962760122972e-07
-1.526585693475575e-08
7.26885832652428e-07
-3.61340180722311e-08
1.121016304133898e-06
-8.446998913936614e-08
1.564077995226207e-06
-1.372852230849103e-07
2.018913004370737e-06
-2.310583910049727e-07
2.44411211108103e-06
-3.303468252991753e-07
2.821241452609388e-06
-4.418591611968061e-07
3.158052579729455e-06
-5.446057396678381e-07
3.474622260073024e-06
-6.193122106343279e-07
1.231996448644802e-07
-3.192362998212874e-09
4.055817494679043e-07
-1.460560144187066e-08
7.493644382684844e-07
-3.773984610249037e-08
1.158296881414639e-06
-7.235975023002595e-08
1.6203008249448e-06
-1.416286382753558e-07
2.097728938946207e-06
-2.154886224759955e-07
2.548409273966831e-06
-3.358074961991982e-07
2.950764481329457e-06
-4.598427443496475e-07
3.305582383038519e-06
-5.894066171348376e-07
3.630316848934994e-06
-7.002955823175691e-07
3.947692033121514e-06
-7.716820033967053e-07
1.262768527271274e-07
-3.07515723114266e-09
4.164214266351842e-07
-1.402864203465254e-08
7.708667414164378e-07
-3.610444036912448e-08
1.194039829193705e-06
-7.347792352203934e-08
1.673783842094142e-06
-1.249020639863057e-07
2.173169727861034e-06
-2.177585711431129e-07
2.650150184123067e-06
-3.167706814523898e-07
3.081309521064958e-06
-4.666646366889577e-07
3.462383530829121e-06
-6.166297897595314e-07
3.803537391177685e-06
-7.626423212874212e-07
4.126071686278505e-06
-8.786708859400607e-07
4.453208043677513e-06
-9.430500435517473e-07
1.292503967927374e-07
-2.972602356119563e-09
4.268658302822225e-07
-1.351592007141209e-08
7.915193845556232e-07
-3.467818063663182e-08
1.228194905645077e-06
-7.025544426635504e-08
1.724872726857128e-06
-1.245628640280434e-07
2.244603815950803e-06
-1.956419274824844e-07
2.747289772605193e-06
-3.154206933509395e-07
3.208973373375033e-06
-4.441154442377996e-07
3.621537066405026e-06
-6.260356254576631e-07
3.989053687892413e-06
-8.021283310488384e-07
4.325972626197825e-06
-9.625520051625589e-07
4.655162550766925e-06
-1.080623292360971e-06
4.999962812360477e-06
-1.134199850174342e-06
1.321164393287686e-07
-2.873944863298696e-09
4.369609119827881e-07
-1.306600167438084e-08
8.114208377989796e-07
-3.341398041588607e-08
1.260966100859261e-06
-6.744579793657575e-08
1.77352353201994e-06
-1.189033994874317e-07
2.312425202232065e-06
-1.923803496301918e-07
2.83887146164209e-06
-2.866938701732173e-07
3.330851242336937e-06
-4.376647931764017e-07
3.777885839768225e-06
-6.00240493156526e-07
4.1786990249462e-06
-8.158434838348938e-07
4.541481973867767e-06
-1.017630397879318e-06
4.882846341264926e-06
-1.19024507320815e-06
5.226545557659267e-06
-1.307203658470143e-06
5.596327833724748e-06
-1.345999340957111e-06
1.348514508203279e-07
-2.718447410433742e-09
4.46694988886724e-07
-1.262181721171066e-08
8.306593821755765e-07
-3.23029940620194e-08
1.292515365674459e-06
-6.495944452922755e-08
1.820037444678063e-06
-1.139571355849784e-07
2.376627872687538e-06
-1.831027136039388e-07
2.925264915422745e-06
-2.787713869149298e-07
3.445505144067525e-06
-4.009737519823137e-07
3.927516196104934e-06
-5.875568605308149e-07
4.366050207448611e-06
-7.874237967489256e-07
4.763245237136991e-06
-1.037718227023136e-06
5.129686697296495e-06
-1.264457774233215e-06
5.483300456666452e-06
-1.447004390027887e-06
5.848748951280747e-06
-1.559623861667569e-06
6.250697025009911e-06
-1.579381396368639e-06
1.374710396327657e-07
-2.618426226274558e-09
4.559886662429306e-07
-1.198393951962727e-08
8.492157646163003e-07
-3.119199587361841e-08
1.322986862758165e-06
-6.277273624607158e-08
1.864663925631881e-06
-1.095831065198317e-07
2.437637172470462e-06
-1.74963492972023e-07
3.006516107030863e-06
-2.643523411077941e-07
3.553163141794044e-06
-3.864266554896846e-07
4.06835243331011e-06
-5.415411293047806e-07
4.546111868630091e-06
-7.678151429721525e-07
4.983602304192452e-06
-1.007665826184399e-06
5.385174563998105e-06
-1.293299621701731e-06
5.762986183592301e-06
-1.544139421889916e-06
6.136062521572275e-06
-1.734324285382182e-06
6.530299675335082e-06
-1.839225045603185e-06
6.971836978674392e-06
-1.835298071516397e-06
1.400071324518878e-07
-2.534452632810548e-09
4.648937722953862e-07
-1.152141927422058e-08
8.6694097860403e-07
-2.968133094380104e-08
1.352360532998474e-06
-6.058012303670738e-08
1.907626396553352e-06
-1.057339265520465e-07
2.495828355484616e-06
-1.677711960820553e-07
3.083194278237128e-06
-2.516401859869123e-07
3.653884707804391e-06
-3.650714509812254e-07
4.200336858184336e-06
-5.1840964290607e-07
4.716057855824912e-06
-7.112836113826186e-07
5.196460503832354e-06
-9.808113362286212e-07
5.640441264319625e-06
-1.26283591287257e-06
6.053939628230259e-06
-1.584312860040979e-06
6.450326440731134e-06
-1.85839291604338e-06
6.849845287224495e-06
-2.053872180071473e-06
7.280067591446035e-06
-2.147455310186269e-06
7.769169889284537e-06
-2.11469290459155e-06
1.424685622743113e-07
-2.461340823874629e-09
4.735189240743765e-07
-1.11567314657991e-08
8.839308212951119e-07
-2.850936437134923e-08
1.380410242061328e-06
-5.770247076662764e-08
1.948932202246368e-06
-1.018978735220488e-07
2.551544093326326e-06
-1.614482365228559e-07
3.155838273811074e-06
-2.404135169449292e-07
3.748367934797881e-06
-3.461212489967642e-07
4.323453741678441e-06
-4.881875435038954e-07
4.875413456655629e-06
-6.777632134841974e-07
5.398186257752184e-06
-9.1286653469441e-07
5.888303856256495e-06
-1.228788515989886e-06
6.346090757889246e-06
-1.554926059229846e-06
6.778695875662097e-06
-1.912741592567456e-06
7.200641943411613e-06
-2.20918745856835e-06
7.633680609611872e-06
-2.407489908868521e-06
8.107545564489391e-06
-2.48582999372675e-06
8.653019179455404e-06
-2.418446710241997e-06
1.448454950165379e-07
-2.695554976213142e-09
4.818947739118528e-07
-1.083692536047035e-08
9.003934447290152e-07
-2.761662506093692e-08
1.407283083232698e-06
-5.537999471003309e-08
1.98830311672749e-06
-9.705025354055189e-08
2.604878107921719e-06
-1.552436476380937e-07
3.224953893526608e-06
-2.305631026518127e-07
3.837326498540925e-06
-3.293698195875931e-07
4.438471471060008e-06
-4.611381662217434e-07
5.023979952604725e-06
-6.367521307323736e-07
5.58779765284585e-06
-8.673737860503501e-07
6.12430374896418e-06
-1.148747090943329e-06
6.631169461516445e-06
-1.513942463244865e-06
7.109880641607354e-06
-1.886049950617214e-06
7.56861373885649e-06
-2.280747686707064e-06
8.02317246293758e-06
-2.598670462024244e-06
8.497195619421291e-06
-2.797140970292465e-06
9.023092030181883e-06
-2.855902776116648e-06
9.634841179561224e-06
-2.747338297884904e-06
1.471572699323023e-07
-1.987598330157127e-09
4.899881561957728e-07
-1.126430285550088e-08
9.16387470155445e-07
-2.683085961775853e-08
1.433311063865536e-06
-5.364165156806365e-08
2.025944993897962e-06
-9.302033107736026e-08
2.655571488555676e-06
-1.477212884522201e-07
3.290791265949993e-06
-2.210892665506685e-07
3.921455559751588e-06
-3.146911131520184e-07
4.546251354440754e-06
-4.371487357005283e-07
5.162509337140533e-06
-5.996658592464905e-07
5.764819609417526e-06
-8.137738216715941e-07
6.346904813436358e-06
-1.08997321637904e-06
6.903890073530655e-06
-1.421390206900209e-06
7.434509596634794e-06
-1.838644078712836e-06
7.941207514448749e-06
-2.258609453714248e-06
8.433170465178865e-06
-2.690786751684769e-06
8.927732272072904e-06
-3.029206101740733e-06
9.450852758815337e-06
-3.224905416206546e-06
1.003815800695689e-05
-3.259218846453303e-06
1.07274599177166e-05
-3.10197415027984e-06
1.494169864762896e-07
-2.489173599413308e-09
4.978647541293623e-07
-9.380664036737875e-09
9.318509223233119e-07
-2.723344842441567e-08
1.458588177900353e-06
-5.210766441885592e-08
2.062326874686376e-06
-9.002127687638908e-08
2.703897677120873e-06
-1.413447040935359e-07
3.353203630923453e-06
-2.101189102182606e-07
4.001304368867126e-06
-3.00946686706304e-07
4.647674988613226e-06
-4.161143130536722e-07
5.291950536664004e-06
-5.66588181503867e-07
5.929899150828891e-06
-7.647450417510005e-07
6.555293557036609e-06
-1.022160984994611e-06
7.162143920591816e-06
-1.348226528168752e-06
7.746465644478032e-06
-1.733270544659207e-06
8.307916563724515e-06
-2.20539677321657e-06
8.849795308561999e-06
-2.675192442483514e-06
9.382407583859297e-06
-3.145481625095044e-06
9.92494681170315e-06
-3.503292319777543e-06
1.050617346181607e-05
-3.692921133045464e-06
1.116551500062382e-05
-3.697273994306088e-06
1.194531797016481e-05
-3.482727960280161e-06
1.516281697549846e-07
-1.979702082527395e-09
5.055700172779996e-07
-1.05374993838288e-08
9.469104663854356e-07
-2.392671187238942e-08
1.48302405387438e-06
-5.208668602986291e-08
2.097589146775104e-06
-8.736991572702643e-08
2.750455004400477e-06
-1.365762351776691e-07
3.41254118142097e-06
-2.006813578097993e-07
4.077131881816053e-06
-2.859305778801555e-07
4.743582512307824e-06
-3.96859731750152e-07
5.413338557921345e-06
-5.375015110399254e-07
6.083997723705949e-06
-7.20686264598905e-07
6.749942424212447e-06
-9.593925036971133e-07
7.404747157437557e-06
-1.264764192137081e-06
8.043060845071531e-06
-1.644820309458938e-06
8.661776268332933e-06
-2.087085825413303e-06
9.261350132848025e-06
-2.617001617175273e-06
9.845935844365458e-06
-3.138701876952963e-06
1.042716189177495e-05
-3.647727098718155e-06
1.102647343661853e-05
-4.023592112260284e-06
1.167596097779527e-05
-4.203370180937749e-06
1.241949638469144e-05
-4.171451784485996e-06
1.330475409266429e-05
-3.889643493845115e-06
1.538072607554051e-07
-2.167189958263201e-09
5.131145221320911e-07
-9.179714945438629e-09
9.616527957969847e-07
-2.56430328974692e-08
1.50682178713833e-06
-4.730148991915555e-08
2.131634427589878e-06
-8.649560391999205e-08
2.795444917831355e-06
-1.323595394667754e-07
3.469508104343872e-06
-1.935417415095812e-07
4.149264937223934e-06
-2.728130341990736e-07
4.834798078463134e-06
-3.771367555552338e-07
5.527719028565761e-06
-5.11246772183758e-07
6.228249632158257e-06
-6.817532031967767e-07
6.93175492711792e-06
-9.024973257875403e-07
7.631954597794909e-06
-1.186599798735747e-06
8.32272870746007e-06
-1.544430662080113e-06
8.999511746106438e-06
-1.982555475196095e-06
9.659991362645455e-06
-2.485674957855925e-06
1.030535731035766e-05
-3.076448350784305e-06
1.094071088768331e-05
-3.652220074857777e-06
1.157928256195224e-05
-4.200547467192002e-06
1.224522027894057e-05
-4.592844319156111e-06
1.297453443665708e-05
-4.758407989153465e-06
1.38162626421369e-05
-4.682960453921587e-06
1.482431742430905e-05
-4.322341385355037e-06
1.559495845614846e-07
-2.140727999223038e-09
5.205555915231143e-07
-9.587775437287145e-09
9.760969929832129e-07
-2.325805349359602e-08
1.530116744561877e-06
-4.923797098817683e-08
2.164754582391907e-06
-8.005465494634769e-08
2.838811867519931e-06
-1.301301182254245e-07
3.524379136298585e-06
-1.87230648159053e-07
4.218248159145184e-06
-2.625231993262367e-07
4.921857098925484e-06
-3.598715311830861e-07
5.636268935877874e-06
-4.856747546611586e-07
6.363870476557043e-06
-6.468715001407623e-07
7.101904193311415e-06
-8.519017866099012e-07
7.844558850677333e-06
-1.115101332773065e-06
8.585486484935247e-06
-1.44935633912811e-06
9.31916981684869e-06
-1.864088903842258e-06
1.004184139799451e-05
-2.364404219013478e-06
1.075190199071918e-05
-2.932194529547467e-06
1.145128215817618e-05
-3.587056350658338e-06
1.214620400094584e-05
-4.219131270300058e-06
1.285184633931801e-05
-4.80719738310388e-06
1.359557459704603e-05
-5.213884841835094e-06
1.441798417975157e-05
-5.36013213412176e-06
1.537409989121186e-05
-5.232742350687798e-06
1.652512797900604e-05
-4.7798826694718e-06
1.58052663148917e-07
-2.102653134316365e-09
5.278771995287965e-07
-9.459599174911077e-09
9.903530547320379e-07
-2.382406712612981e-08
1.552938567267924e-06
-4.578063435769791e-08
2.197130394375394e-06
-8.187255592840611e-08
2.880945181449092e-06
-1.219181821025338e-07
3.577338561275232e-06
-1.832996245205004e-07
4.284420463239416e-06
-2.534027023771838e-07
5.005010716822498e-06
-3.456759058866521e-07
5.739799062571079e-06
-4.634005369275596e-07
6.492223071454794e-06
-6.140213803357024e-07
7.261726223485713e-06
-8.066987726945645e-07
8.043718453127531e-06
-1.051061282422536e-06
8.831983820714962e-06
-1.361597417864308e-06
9.620525064652228e-06
-1.750711623213512e-06
1.040455607838877e-05
-2.226802317366284e-06
1.118106238722171e-05
-2.793564397010021e-06
1.194911619513818e-05
-3.429990271289049e-06
1.271147028374093e-05
-4.152337509612406e-06
1.347571163163382e-05
-4.842972452436109e-06
1.42593811242857e-05
-5.471009724446014e-06
1.509365018314869e-05
-5.889544292724331e-06
1.602445741627849e-05
-6.01048906775065e-06
1.711376101358112e-05
-5.821375512311142e-06
1.843129351228488e-05
-5.260629982636766e-06
1.601196230273587e-07
-2.066817256317441e-09
5.350724828340491e-07
-9.297189460636661e-09
1.004392600328867e-06
-2.349648189112561e-08
1.575460549459277e-06
-4.632554099146557e-08
2.228804938430474e-06
-7.719565343952607e-08
2.922048456895875e-06
-1.231674838167831e-07
3.628880217882921e-06
-1.732486436750626e-07
4.348219780255338e-06
-2.472541829245816e-07
5.084497295478351e-06
-3.328894008908317e-07
5.838588806324357e-06
-4.44464245728001e-07
6.614251427781793e-06
-5.854286369006092e-07
7.412727468073695e-06
-7.650131796834681e-07
8.230837980694023e-06
-9.938210069835534e-07
9.06332590681121e-06
-1.282402772367509e-06
9.904069646009444e-06
-1.645141951794269e-06
1.074766866136547e-05
-2.093823082765211e-06
1.159009367689977e-05
-2.635833859289647e-06
1.24290357908764e-05
-3.273482762122377e-06
1.326425411690071e-05
-3.982759756629573e-06
1.409947483501962e-05
-4.776129297128891e-06
1.494396229687568e-05
-5.527548967046948e-06
1.581810687644376e-05
-6.195485923616123e-06
1.675756248736072e-05
-6.622650142148469e-06
1.781448310931529e-05
-6.711213422517476e-06
1.905885909850609e-05
-6.448940560097162e-06
2.056794288414741e-05
-5.762027475613785e-06
1.621502997114054e-07
-2.080100982500785e-09
5.421515954228481e-07
-9.145670628175673e-09
1.018204470445398e-06
-2.310836105454117e-08
1.597645197944698e-06
-4.567838511787942e-08
2.260020414476293e-06
-7.752508691055778e-08
2.962181310958116e-06
-1.171393615202924e-07
3.679047317893587e-06
-1.7348365014429e-07
4.410280504278715e-06
-2.35153045225267e-07
5.160866052861245e-06
-3.237406636613751e-07
5.933134924522571e-06
-4.274352969614526e-07
6.73043541287044e-06
-5.606476551528244e-07
7.555968750408613e-06
-7.286689563121096e-07
8.407517590642144e-06
-9.416888422195451e-07
9.280941178308172e-06
-1.211440572478161e-06
1.01708326038415e-05
-1.549165717911748e-06
1.107151068588586e-05
-1.968982858939277e-06
1.197828924608474e-05
-2.482018767488072e-06
1.288787771316559e-05
-3.094674587557615e-06
1.379865579409528e-05
-3.807884320361128e-06
1.471114762465295e-05
-4.594402603480294e-06
1.563027121171569e-05
-5.462446315511073e-06
1.656735195453869e-05
-6.276774316717505e-06
1.754620203630914e-05
-6.984127865453151e-06
1.860773994519257e-05
-7.415900861429937e-06
1.981134536600053e-05
-7.46369887182412e-06
2.123373692620109e-05
-7.114734709094265e-06
2.297220866771305e-05
-6.280523451745535e-06
1.641501166151995e-07
-1.946858699072887e-09
5.491142635490001e-07
-9.116361151336575e-09
1.031807283567138e-06
-2.274824025055765e-08
1.619478276422798e-06
-4.494068779461167e-08
2.290741355138725e-06
-7.639716180816406e-08
3.001657140756985e-06
-1.16985004145161e-07
3.72790854049122e-06
-1.658512820013975e-07
4.470516681362265e-06
-2.338319758042893e-07
5.234872717271478e-06
-3.090420070985827e-07
6.023967058072548e-06
-4.146665636188602e-07
6.84163259153428e-06
-5.386326387373504e-07
7.692086715824295e-06
-6.967644336452321e-07
8.574908759742048e-06
-8.960600038493304e-07
9.486475601555945e-06
-1.147215453235587e-06
1.042223345244814e-05
-1.462843326777126e-06
1.137702527869817e-05
-1.854679775378502e-06
1.234582221087277e-05
-2.336515877002377e-06
1.33246929626172e-05
-2.918832960921328e-06
1.431106661203965e-05
-3.607085750238508e-06
1.530404186161805e-05
-4.400777357650821e-06
1.630505004187966e-05
-5.269174110638079e-06
1.732048752153983e-05
-6.21560506184515e-06
1.836420315712191e-05
-7.094774203654386e-06
1.946410349160767e-05
-7.840507918218524e-06
2.066728029629851e-05
-8.271836902860609e-06
2.203886991357126e-05
-8.268833833938377e-06
2.367498531692275e-05
-7.817510811425849e-06
2.567769723299838e-05
-6.811187771234543e-06
1.661255719882922e-07
-1.975200853082643e-09
5.559795451324032e-07
-8.732768064911222e-09
1.045201726029034e-06
-2.258839798832033e-08
1.640988111725934e-06
-4.425780562264232e-08
2.3209558498253e-06
-7.515462738053455e-08
3.040459647020221e-06
-1.151975265872254e-07
3.775860349535363e-06
-1.649266104305111e-07
4.529015970538847e-06
-2.242411343247188e-07
5.30648273653855e-06
-3.055255739659283e-07
6.111638623825142e-06
-3.966194184346184e-07
6.948397898544474e-06
-5.215020218586041e-07
7.822068446252086e-06
-6.686141685114656e-07
8.733789148941724e-06
-8.556444269088904e-07
9.681141770738137e-06
-1.09072530739583e-06
1.065992487876827e-05
-1.384904495731078e-06
1.166560272198463e-05
-1.751424366581355e-06
1.269354848598026e-05
-2.202406082935679e-06
1.37394990431679e-05
-2.751320928111752e-06
1.48002863253849e-05
-3.408052873916112e-06
1.587406640182548e-05
-4.177109148536124e-06
1.696074283074418e-05
-5.056470055589829e-06
1.806286187631743e-05
-6.011523977979489e-06
1.918865767705575e-05
-7.040063431335523e-06
2.035505553640983e-05
-7.985709464454535e-06
2.159484841100991e-05
-8.768076031249613e-06
2.295963717468396e-05
-9.192598405697503e-06
2.453317990599759e-05
-9.127027394200705e-06
2.641499796131177e-05
-8.554811605308906e-06
2.872616978934867e-05
-7.34751103275112e-06
1.680728970059096e-07
-1.94915495638946e-09
5.627691718493185e-07
-8.764392948145627e-09
1.05842477734056e-06
-2.187260768978059e-08
1.66217872214256e-06
-4.384207363313427e-08
2.350704737837734e-06
-7.400649483300526e-08
3.078588254036282e-06
-1.132826453894247e-07
3.82292813176008e-06
-1.622638960035643e-07
4.586274002696108e-06
-2.221728867623128e-07
5.37582610387625e-06
-2.935006415321374e-07
6.196266063547563e-06
-3.902215449018265e-07
7.05117641361573e-06
-4.993284616562226e-07
7.946591205715854e-06
-6.460857672993898e-07
8.885268764217938e-06
-8.20093966580259e-07
9.865835721503891e-06
-1.04033732883121e-06
1.088515361061917e-05
-1.315954047435722e-06
1.193887517163054e-05
-1.658170320801018e-06
1.302281905683554e-05
-2.080696210793192e-06
1.413306739417314e-05
-2.595973937009626e-06
1.526617706388456e-05
-3.217211818419582e-06
1.641975320671882e-05
-3.953738671095883e-06
1.759272869338467e-05
-4.809095387486541e-06
1.878595779150235e-05
-5.779564769569371e-06
2.000337862861936e-05
-6.826241881193673e-06
2.125550410234062e-05
-7.940531459700851e-06
2.256299543418018e-05
-8.953857592675607e-06
2.39615970476187e-05
-9.770050196038162e-06
2.552070248905543e-05
-1.018012229858311e-05
2.73257778633204e-05
-1.003780902522397e-05
2.949421097175085e-05
-9.322852239104061e-06
3.21657943571342e-05
-7.88106853644846e-06
1.699927862571761e-07
-1.916371640006081e-09
5.694698450546118e-07
-8.65303359445634e-09
1.071517034594492e-06
-2.185622718851858e-08
1.683109636807806e-06
-4.273525194196934e-08
2.37999974714583e-06
-7.319091401652854e-08
3.116100899167754e-06
-1.11518917898539e-07
3.869134357873775e-06
-1.594885290052212e-07
4.642383979650227e-06
-2.183722685157713e-07
5.443501534997406e-06
-2.898415523216918e-07
6.278045374750586e-06
-3.752140878539989e-07
7.150376966398273e-06
-4.894718061956873e-07
8.066260292731398e-06
-6.189365053818855e-07
9.030146831321371e-06
-7.910065793226742e-07
1.004177477987067e-05
-9.96032839099915e-07
1.109890920224243e-05
-1.254092686062744e-06
1.219810304406735e-05
-1.575181126257477e-06
1.333522998147921e-05
-1.970579850789409e-06
1.450670657128116e-05
-2.454338442833806e-06
1.57094290546229e-05
-3.039226005534447e-06
1.694080469953699e-05
-3.738262348934896e-06
1.819924672637187e-05
-4.560256936399287e-06
1.948456650624977e-05
-5.507702986680244e-06
2.079877902530691e-05
-6.574965129592578e-06
2.214756704295463e-05
-7.718283976882421e-06
2.354425737473333e-05
-8.921794265450556e-06
2.501103352888437e-05
-1.000327942567729e-05
2.660030934722892e-05
-1.084965531650224e-05
2.838128379213992e-05
-1.12356227814353e-05
3.045605763212122e-05
-1.099965453509883e-05
3.295916877208262e-05
-1.011622665860512e-05
3.605213590832709e-05
-8.392127339896699e-06
1.718884843826885e-07
-1.895575600327831e-09
5.760868807828595e-07
-8.527314533313416e-09
1.084454317144198e-06
-2.15933049250023e-08
1.703843964597908e-06
-4.259012443629243e-08
2.408926300761944e-06
-7.160415318047924e-08
3.153021994231768e-06
-1.101512277911098e-07
3.914558874119713e-06
-1.569432944094682e-07
4.69740640435811e-06
-2.145105093366037e-07
5.509696294051962e-06
-2.845660551060228e-07
6.357632771776624e-06
-3.69419718006189e-07
7.246333173519911e-06
-4.711203384501593e-07
8.181724097751987e-06
-6.049808600187048e-07
9.169186008113133e-06
-7.579339483572232e-07
1.020987459871635e-05
-9.591482718792773e-07
1.130249613237099e-05
-1.199619969367488e-06
1.244434683601831e-05
-1.500335530467743e-06
1.363204304993638e-05
-1.871994267408216e-06
1.486197052643029e-05
-2.325838041287012e-06
1.613130896731083e-05
-2.876219178104197e-06
1.743783123560477e-05
-3.53625207285826e-06
1.877982949961573e-05
-4.318845326535555e-06
2.015659996216072e-05
-5.232289410719599e-06
2.156899252388604e-05
-6.277916904000053e-06
2.302046271260741e-05
-7.44785958282547e-06
2.451887657391701e-05
-8.692903087728177e-06
2.60778950369206e-05
-9.988672490410692e-06
2.773531457004394e-05
-1.113828737574964e-05
2.954123129592303e-05
-1.200961542528841e-05
3.157998240815419e-05
-1.235954911858043e-05
3.396925175589955e-05
-1.200973902704908e-05
3.686343459541372e-05
-1.092752477031301e-05
4.045157593744248e-05
-8.83972502575996e-06
1.737579200738206e-07
-1.91040893411356e-09
5.82631008077606e-07
-8.43948294713117e-09
1.097251184528728e-06
-2.131840260210944e-08
1.724347187198468e-06
-4.209970095260771e-08
2.437573610986466e-06
-7.123709576980365e-08
3.189464920420008e-06
-1.080043188996791e-07
3.959244607427714e-06
-1.548676217611668e-07
4.751446951823311e-06
-2.109836640641044e-07
5.574528444011244e-06
-2.793424368360293e-07
6.43531745786343e-06
-3.622494540755883e-07
7.339581173573306e-06
-4.62663198511042e-07
8.293445926896957e-06
-5.827995515489035e-07
9.303159879129828e-06
-7.38984944804358e-07
1.037104725957279e-05
-9.190647718486169e-07
1.14969368267618e-05
-1.153615996289673e-06
1.267897785446225e-05
-1.434250817010883e-06
1.391437244184557e-05
-1.782664777793868e-06
1.520011781956742e-05
-2.210140815399613e-06
1.65333292967196e-05
-2.727857811485087e-06
1.79120591680305e-05
-3.350449742596858e-06
1.933500531727731e-05
-4.091427986479683e-06
2.08014040479219e-05
-4.963648495430397e-06
2.231155963666172e-05
-5.974856796167788e-06
2.386758488258426e-05
-7.12503797707572e-06
2.547473364089459e-05
-8.403716618428986e-06
2.714033777367612e-05
-9.755327606551266e-06
2.889287483880739e-05
-1.114623150569695e-05
3.076571390988856e-05
-1.236275695438353e-05
3.282239703778694e-05
-1.325202722458251e-05
3.516099963749948e-05
-1.355129183222144e-05
3.791729675821266e-05
-1.306359991334331e-05
4.126556221058634e-05
-1.174151096529221e-05
4.546418910505891e-05
-9.171891898183047e-06
1.756001233045592e-07
-1.799687775155568e-09
5.8909511928546e-07
-8.435836333804176e-09
1.109927615045119e-06
-2.1115705776146e-08
1.744648267886648e-06
-4.161347984588499e-08
2.465901376361069e-06
-7.042977760426984e-08
3.225548665513602e-06
-1.073205104165125e-07
4.003338479901824e-06
-1.520653104679226e-07
4.804573496532311e-06
-2.080169351363128e-07
5.638133657253683e-06
-2.745887789148796e-07
6.511299689209765e-06
-3.553243078527934e-07
7.430416293293396e-06
-4.530838919555952e-07
8.40190454013025e-06
-5.711141362644561e-07
9.432617198914985e-06
-7.12226289985271e-07
1.052619104716989e-05
-8.941604282402321e-07
1.168327986846555e-05
-1.105381897742362e-06
1.290311370928878e-05
-1.377781993876436e-06
1.418363923777362e-05
-1.703517821488062e-06
1.552230560101658e-05
-2.104851680822476e-06
1.691674684969806e-05
-2.593558518063348e-06
1.836496399747394e-05
-3.180757545326226e-06
1.986596086777732e-05
-3.881405745922244e-06
2.14194182754807e-05
-4.709441761929498e-06
2.302561529911331e-05
-5.67770441135246e-06
2.468604740763287e-05
-6.793318360498477e-06
2.640438618972146e-05
-8.054690956048886e-06
2.81847513964894e-05
-9.448128986094021e-06
3.004883754078289e-05
-1.091129222069805e-05
3.201886224105583e-05
-1.239939445241933e-05
3.413990186385231e-05
-1.368026556106115e-05
3.648723509721119e-05
-1.45782739269343e-05
3.917495319141936e-05
-1.480894991294149e-05
4.235667901802228e-05
-1.415471797946385e-05
4.624516212127213e-05
-1.252248337281064e-05
5.120575052994326e-05
-9.357858420430478e-06
1.774198889586686e-07
-1.818673661490911e-09
5.954752364180174e-07
-8.11608490746289e-09
1.122469994051262e-06
-2.104219160001445e-08
1.764778430108667e-06
-4.12456437633336e-08
2.493958300435868e-06
-6.966590284579469e-08
3.261233720042519e-06
-1.061172695947101e-07
4.046995173782629e-06
-1.509769864271061e-07
4.856976784675032e-06
-2.04443401314578e-07
5.70061003926453e-06
-2.705105873512617e-07
6.585758223650896e-06
-3.490471630676227e-07
7.519142063399901e-06
-4.44049937464465e-07
8.507424997674519e-06
-5.586032517212427e-07
9.55814002644637e-06
-6.96633719905079e-07
1.067595034161979e-05
-8.619563664015973e-07
1.186254177363768e-05
-1.073441342816127e-06
1.311792339811813e-05
-1.320161504072903e-06
1.444104520420618e-05
-1.635204640551914e-06
1.582999293023706e-05
-2.011204996085928e-06
1.728275729995546e-05
-2.470862077259618e-06
1.879780626629527e-05
-3.026400080225429e-06
2.037414055628826e-05
-3.688937214941525e-06
2.201178804335787e-05
-4.473777800115541e-06
2.371149816924591e-05
-5.39532474862942e-06
2.547474170964192e-05
-6.466397836439067e-06
2.730445398733384e-05
-7.69338644282039e-06
2.920272574856222e-05
-9.072664217204662e-06
3.118790245589772e-05
-1.058719389965041e-05
3.327395858237391e-05
-1.216637229363058e-05
3.549335063483554e-05
-1.375284053830487e-05
3.790077118736154e-05
-1.509378990875133e-05
4.058533723264896e-05
-1.598865411834518e-05
4.3676599586161e-05
-1.612886558213334e-05
4.736380197200661e-05
-1.527335651612263e-05
5.189703224698328e-05
-1.321376490478479e-05
5.779602966714725e-05
-9.408616580644035e-06
1.792200407979667e-07
-1.799623651517764e-09
6.017923014955295e-07
-8.133930892123108e-09
1.134870624633555e-06
-2.045036114955132e-08
1.78471765021581e-06
-4.103339057392224e-08
2.521788959090433e-06
-6.907613577064073e-08
3.296592666094645e-06
-1.050202639507688e-07
4.09018349196034e-06
-1.493070216054915e-07
4.908854633762246e-06
-2.02854587684232e-07
5.762205471208264e-06
-2.66020316145039e-07
6.658824193264171e-06
-3.435904515046667e-07
7.606024234537604e-06
-4.359292577525667e-07
8.610413072583316e-06
-5.4703770225543e-07
9.680174192644479e-06
-6.806368915409656e-07
1.082101860369245e-05
-8.416953031343045e-07
1.20354681672404e-05
-1.034863243199894e-06
1.332453134758658e-05
-1.280072585378997e-06
1.468786315715485e-05
-1.56696399584877e-06
1.612445726940835e-05
-1.929691480635021e-06
1.763285168735496e-05
-2.361299598836621e-06
1.921182077974936e-05
-2.884875766098085e-06