/*--------------------------------*- C++ -*----------------------------------*\
| =========                 |                                                 |
| \\      /  F ield         | OpenFOAM: The Open Source CFD Toolbox           |
|  \\    /   O peration     | Version:  2006                                  |
|   \\  /    A nd           | Website:  www.openfoam.com                      |
|    \\/     M anipulation  |                                                 |
\*---------------------------------------------------------------------------*/
FoamFile
{
    version     2.0;
    format      ascii;
    class       volVectorField;
    location    "518";
    object      U;
}
// * * * * * * * * * * * * * * * * * * * * * * * * * * * * * * * * * * * * * //

dimensions      [0 1 -1 0 0 0 0];


internalField   nonuniform List<vector> 
28643
(
(0.01081016246789553 -0.001156780766806819 0)
(0.01126854459195037 -0.001215002651984925 -9.61725036975248e-20)
(0.03331588905791657 -0.003564330479639497 -1.581821785709939e-19)
(0.01175501091675787 -0.001276421825849888 -9.466876090060584e-20)
(0.03473840464551749 -0.0037447596641986 0)
(0.05778274422537477 -0.00618104618877007 1.718997266075754e-19)
(0.01226468004647564 -0.00134079415820724 9.334802362971217e-20)
(0.03624797369998476 -0.003935047324711585 1.530063015874633e-19)
(0.06026091644596054 -0.006495129428943041 1.688755925111707e-19)
(0.08411580930686664 -0.008996476781025492 -1.815774170745479e-19)
(0.01278419009968355 -0.001406654076554469 4.445444583006917e-26)
(0.03782924550239789 -0.004134532733755785 -1.455140337766724e-25)
(0.06289120520478043 -0.006826313544811774 -1.661948940878126e-19)
(0.08772506074441179 -0.009453776087483387 -1.78202546376898e-19)
(0.1112004276052515 -0.01189108376711734 1.775264075114461e-19)
(0.01329103872946739 -0.001471444230077135 8.608655235552168e-26)
(0.03944052216333337 -0.004338608658655976 1.405884133898879e-25)
(0.06564628440956247 -0.007173630726780904 -1.638433532906392e-19)
(0.0915592468592645 -0.009936286396780524 1.752497005837329e-19)
(0.115934717096345 -0.01249142460202008 0)
(0.1362903747459266 -0.01457084201010859 -2.97416558466057e-25)
(0.01378906112936684 -0.001535374385745168 -1.724492583054263e-25)
(0.04101212797594407 -0.004539360882395768 -1.42123352214425e-25)
(0.06845277927288028 -0.0075289091080624 1.560195383002804e-25)
(0.09557652550089836 -0.01044253647387518 1.298999909037758e-25)
(0.1209814536896877 -0.01312668228002889 1.709412745190323e-19)
(0.1420239611920643 -0.01529885979901227 1.509343051108693e-19)
(0.1568384210312447 -0.01676321609448215 -2.280876546556511e-25)
(0.01425928735651611 -0.001596574975051876 1.777244009441001e-27)
(0.04255540054972861 -0.00473729900097958 -1.378688036158094e-25)
(0.07119002575925061 -0.007878403790209779 -1.510341995859677e-25)
(0.09966741454676251 -0.01096032685362964 -1.643678498298749e-25)
(0.1262792317081334 -0.01379435603908151 3.368934210636198e-19)
(0.1481886003998913 -0.01607485931708591 -1.486151478028606e-19)
(0.1634137715518486 -0.01759798637867526 -1.189055955765141e-19)
(0.1725183396956703 -0.01843333883854266 -1.759616924368223e-25)
(0.01471339642526028 -0.001656068372184668 -8.914799702554243e-20)
(0.04401227575248683 -0.004926809949340364 1.44965619247228e-19)
(0.07387574038881919 -0.008222715034269306 1.528306840981873e-25)
(0.1036570935068942 -0.0114696631856068 0)
(0.1316751700134613 -0.01447748303579663 3.138718429211412e-25)
(0.1546956221858206 -0.01689445738765988 -2.93859074980414e-19)
(0.1705727655847275 -0.01849758037956145 1.177342096614901e-19)
(0.1797987249856975 -0.01935585784133469 0)
(0.1843779134198781 -0.01969328000961841 6.888804821950687e-20)
(0.01514659415449578 -0.001713432675397299 0)
(0.04541855997440193 -0.005110922834300078 0)
(0.07641112916483628 -0.008552464064191965 1.965445289783332e-25)
(0.1075651479128821 -0.01197074114934386 -1.575065494279333e-25)
(0.1369373161532361 -0.0151494061468603 -3.172447104104825e-25)
(0.1613379571851307 -0.01773484688495524 0)
(0.17819616936189 -0.01945528756999482 1.172709045747227e-19)
(0.1878286016729898 -0.02036161680538159 -1.795082499791649e-19)
(0.1922353581408916 -0.02068630245161652 0)
(0.193582153675397 -0.02066763691340625 -5.330741357261792e-20)
(0.01556201247538968 -0.001768891349862139 -8.340945608888871e-26)
(0.04675982007328863 -0.005288433375107346 0)
(0.07885671378380296 -0.008872549574725004 -1.505905585354673e-25)
(0.1112529839459438 -0.01245049066121728 -3.309504493160465e-19)
(0.142074851192902 -0.01580864246123688 3.075300271362593e-25)
(0.1678216851101396 -0.01856215426221416 0)
(0.1860160455447397 -0.02044185103967181 -2.261239470877689e-25)
(0.1964645341266808 -0.02144213669867375 -9.021110372828795e-20)
(0.2010004745415143 -0.02178022852921484 1.053271573021542e-25)
(0.2018979454159163 -0.02171584360620164 -5.300048329010886e-20)
(0.2010111223274595 -0.02145052444303855 4.248805929387492e-20)
(0.01596132332818377 -0.001822583729166044 1.680806559846278e-25)
(0.04804568668381403 -0.005460000284633122 -1.427540332321169e-19)
(0.08118864338156707 -0.009181126468935484 1.554489657909758e-19)
(0.1148035379672639 -0.01291540947487031 0)
(0.146914352282634 -0.01643883065104535 1.614946109737479e-19)
(0.1741244351615148 -0.01937096662382577 2.712903879625285e-25)
(0.1936723821818903 -0.02141577839227849 -1.17456228882006e-19)
(0.2053827516131983 -0.0225623730218944 1.757553624367554e-25)
(0.2105161955795834 -0.02296582442232893 6.940456329618558e-20)
(0.2112611956328838 -0.02288063827950587 3.21555643909566e-25)
(0.2096824294157837 -0.02254100943095487 4.229116541781239e-20)
(0.2072622858372211 -0.02210581893411455 -3.486095611280526e-20)
(0.01634655339108165 -0.001874711483676171 -8.475761331204287e-26)
(0.04928156041905298 -0.005626084115389725 -1.423611865624929e-19)
(0.0834234371603583 -0.009479266076688305 1.547985900907542e-19)
(0.1181851470975366 -0.0133631812687014 -1.632173358864941e-19)
(0.1515531014616693 -0.01704724122868253 3.023749847918974e-25)
(0.1800443797743946 -0.02014216052877143 -2.752938070763195e-25)
(0.2010909057091584 -0.02236556293674965 -4.719203243632529e-27)
(0.2141604586944329 -0.02367367051012392 9.229110148959711e-20)
(0.220416008653162 -0.02420377355463796 0)
(0.221509871885417 -0.02415285865165115 -4.146174257153083e-25)
(0.2195201293939441 -0.02376148807683961 -3.081455744241061e-26)
(0.216203719946904 -0.02322802691483579 -3.469765716219162e-20)
(0.21273262512091 -0.02267593774028708 -2.935734579844173e-20)
(0.0167191068170852 -0.001925409928943748 0)
(0.05047369784505303 -0.005787308032809152 1.421269691086206e-19)
(0.08557083091049884 -0.009767813821407557 1.543240839530965e-19)
(0.1214213529643907 -0.01379527725686249 0)
(0.1559555338046847 -0.01763144573178606 1.589749534646542e-19)
(0.1856796990260373 -0.02088236056388774 1.419041730649545e-19)
(0.2080433573330913 -0.0232693519849297 -4.667941200955169e-27)
(0.2226608886333328 -0.02475733444829622 -3.525732164446288e-25)
(0.2302255358516313 -0.02543958008081784 -2.732616715262116e-25)
(0.2322486862909268 -0.0254904980493112 5.576645032643236e-20)
(0.2303622392451301 -0.02510332224033157 -4.354775191447602e-20)
(0.2264114082386907 -0.0244915386672871 1.82763585806867e-27)
(0.2218739386135759 -0.02382124855281109 2.919462110331983e-20)
(0.2176892574316494 -0.02318939479709488 5.05728326433081e-20)
(0.0170766260499069 -0.001974385086491051 -8.797838879971441e-20)
(0.05162652780472603 -0.00594410255801249 1.340890644743942e-25)
(0.08764174572009772 -0.01004785918141087 -3.080385765198731e-19)
(0.124526951046115 -0.01421299902405276 1.616705074466189e-19)
(0.160152066049008 -0.01819328850928914 1.578962604801092e-19)
(0.1909960762498919 -0.02158949891679064 -1.409699660167439e-19)
(0.2146150115797968 -0.02413167311051513 -1.17602036819287e-19)
(0.2306273124832929 -0.02578842518372846 7.201215252710943e-25)
(0.2397457506390394 -0.02664746044689383 5.941041932913524e-27)
(0.2429659773430044 -0.02683486337605504 -2.217362967323616e-25)
(0.2417956405851344 -0.02652304762658758 -4.487059807742852e-20)
(0.2377255331146982 -0.02588839921220359 3.576469993134439e-20)
(0.232365471526734 -0.02511742419366584 3.641562424686613e-25)
(0.2269719631359274 -0.02435064804744733 0)
(0.2223168766198724 -0.02366587840506479 -2.220511911438196e-20)
(0.01741547920403363 -0.002021184562898214 0)
(0.05273293133137222 -0.006095581432441266 -1.990863962862048e-25)
(0.08964399103287911 -0.01032016714254809 -1.482396957361213e-25)
(0.1275180703708713 -0.01461795701416307 1.611459763865605e-19)
(0.1641636950252843 -0.01873464143846986 -1.569353539155766e-19)
(0.1960306746292733 -0.02226578023777334 -1.400389382517479e-19)
(0.2207747944991163 -0.02495092991951591 -2.261606388368913e-25)
(0.2381204270243647 -0.02676815269647969 -3.666242879508796e-25)
(0.2486904055194395 -0.02779919492820375 -7.558942308032274e-20)
(0.2534081253696846 -0.02815398594694156 5.931936154328527e-20)
(0.2532843535995623 -0.02795924581466526 1.793378653865848e-25)
(0.249722523187888 -0.02737451950356496 -2.847343602308615e-25)
(0.2440499645413483 -0.02655718130814975 -5.115910328354214e-27)
(0.2376761630898957 -0.02567093258072011 1.466016977413508e-25)
(0.2316911493505451 -0.02483696627204586 1.660116773635134e-25)
(0.2267475286851355 -0.02411943997452803 0)
(0.01774316574665608 -0.002066655474635762 8.832949869381782e-20)
(0.05378157533143893 -0.006240326893035728 0)
(0.09156568327203735 -0.01058326219278956 1.53893146088365e-19)
(0.130406478812372 -0.01501131506320356 0)
(0.1680128604762622 -0.01925775013619226 -1.560996958323715e-19)
(0.2008124666275138 -0.0229138309317728 2.626745229151503e-25)
(0.226565588135036 -0.02572958598319246 -2.208998929590427e-25)
(0.245109192751749 -0.02769494699677728 0)
(0.2570874077167785 -0.02889184157037516 -2.904253618408412e-25)
(0.2632619536159783 -0.0294166167567929 6.111926255078894e-20)
(0.2645306011107829 -0.02937495292582466 -1.3700076831805e-25)
(0.2618519111630719 -0.02888686555295327 -2.896140942365982e-25)
(0.2564980444130796 -0.02809633890055632 -2.392473482614742e-25)
(0.249646677990021 -0.02714354300347411 0)
(0.2425482621352499 -0.0261741657778949 4.422048092041701e-20)
(0.2361697465377231 -0.02529499287747571 -1.961130073390212e-20)
(0.2310790919186529 -0.02456047457507154 0)
(0.01806038614024134 -0.00211086122246567 -8.863108888756718e-20)
(0.05479546245796981 -0.006380933693177999 -2.853277793241946e-19)
(0.09338699394935036 -0.01083464946784785 0)
(0.1331764804958541 -0.01539111975648803 -3.031614478438776e-25)
(0.1717165887556917 -0.01976432278178299 -1.553914072042646e-19)
(0.2053721950443503 -0.02353674468028341 2.765346574145136e-19)
(0.2320252517897953 -0.02647110853545234 2.245842466023257e-25)
(0.2516387380165748 -0.02857116099308349 3.623276422725e-25)
(0.2648997732168058 -0.02992313571330979 3.007020814324912e-25)
(0.2725193159851358 -0.03061536953132222 0)
(0.2751996565794508 -0.03073646501431181 -1.891366104162493e-25)
(0.2737816369391076 -0.03038458648926955 -3.997884091392545e-20)
(0.2691515517367781 -0.02967101210688336 0)
(0.2624512257648828 -0.02872454802548418 0)
(0.2547342526819928 -0.02767122229229619 1.736049775147072e-25)
(0.2471284660631338 -0.02664290512915325 -7.546197953780184e-25)
(0.2405099818956052 -0.02573562658539663 1.772202981726323e-20)
(0.2353868856103383 -0.02499696661046267 1.64680669624756e-20)
(0.01836872112083184 -0.002153953304442225 -8.402164469620459e-26)
(0.05577708756137686 -0.006517639139199964 1.431457888188664e-19)
(0.09514740588870668 -0.01107877741587431 1.543858404232104e-19)
(0.1357997339437678 -0.01575378005021256 3.09311546683764e-25)
(0.1752590459320951 -0.02025235340113643 1.54831446727055e-19)
(0.2097344417698477 -0.02413703230430616 2.749391336388097e-19)
(0.2371943577454927 -0.02717959666919227 -1.160584816240636e-19)
(0.2577541297025194 -0.02940089969589959 -9.610018652161292e-20)
(0.2721694164237033 -0.03089473480192939 -7.889355632198756e-20)
(0.281131999968521 -0.03174667271966383 0)
(0.2852487162230527 -0.03203216631898322 -1.916325746376287e-25)
(0.2851615163972737 -0.03183217983649553 0)
(0.2816521037167324 -0.03123734700776202 0)
(0.2755284749405212 -0.03034972177202903 0)
(0.26781577010456 -0.02928468375107971 0)
(0.2594699395547822 -0.02815723560327685 3.079137652138726e-25)
(0.2515251461861247 -0.02708875859398941 -4.258425954213252e-25)
(0.2447901388149427 -0.02616718047629077 -4.948880509082906e-25)
(0.2397311285157472 -0.02543529188564866 -1.043647083288296e-25)
(0.01866410743917156 -0.002195516357570732 8.620119613712021e-26)
(0.0567310879853973 -0.006650883593995233 -1.384943967410342e-25)
(0.09685200809126217 -0.01131615239758468 0)
(0.1383320777468123 -0.01610557212150955 0)
(0.1786064950941293 -0.0207175021658871 -1.544430766654821e-19)
(0.2138896256002815 -0.02471337512301673 -2.735587991996411e-19)
(0.2421070043272504 -0.02785857793568485 -1.155427716003346e-19)
(0.2635052509934481 -0.0301891931140009 3.62908810440895e-25)
(0.2789444763411703 -0.03181091047199228 1.591006352160328e-19)
(0.289133255685842 -0.0328109110122627 6.546131974528443e-20)
(0.294615705521314 -0.03325687868892473 5.344839502720776e-20)
(0.2959183023962601 -0.03321431171948629 0)
(0.293639388195246 -0.03275861043665564 -3.523112339023766e-20)
(0.2884996731284521 -0.03197285970116841 -2.178612815457944e-25)
(0.2812313082025474 -0.03095032369597325 0)
(0.2727609705925177 -0.02979517678464412 -3.092463306164092e-25)
(0.2639700222320883 -0.02861410490864815 2.768168877025953e-25)
(0.2558209925057575 -0.02752053619566747 -1.616498440923171e-20)
(0.2490723534540478 -0.02659622589322872 0)
(0.2441618651580091 -0.02588074940785378 -1.430129888277657e-20)
(0.01895535926057449 -0.002236445516348389 -9.00180709401712e-20)
(0.05764511693769469 -0.006779412953257921 -1.363922311283759e-25)
(0.09850809204942573 -0.01154744428854765 0)
(0.1407825037790439 -0.01644742843578677 3.037879907851198e-25)
(0.1818278145360369 -0.02116747918441894 0)
(0.2178050938591292 -0.02526142876254273 2.72493216551048e-19)
(0.2467658679206888 -0.02850811445404399 1.151005616466922e-19)
(0.2689360368493019 -0.03094059934856636 -7.441879015177899e-27)
(0.285281407919524 -0.03267730339954666 8.002958085431139e-20)
(0.2965691603989004 -0.03381194956733398 -6.64952359197128e-20)
(0.3033215552876199 -0.03440934142594377 5.489568259222844e-20)
(0.3059760708039087 -0.03452419972645514 -1.070929616035646e-25)
(0.3050148128941615 -0.03421634523349275 3.680332233756829e-20)
(0.3009984126654611 -0.03355641992266797 3.0219393309415e-20)
(0.2945860772832798 -0.03262005541120608 0)
(0.2864419053854614 -0.03149273567332303 3.27476496350686e-25)
(0.2774124247969184 -0.03026963118063728 0)
(0.2683230579142936 -0.02905130714918508 2.463038912639517e-25)
(0.2600812374470409 -0.02794514575499935 -1.490895665646762e-20)
(0.2534077760957504 -0.02702815274600955 0)
(0.2487223205252749 -0.02633792592519115 -1.351379559045716e-20)
(0.01923728112528887 -0.002276255752447473 8.732243935860078e-26)
(0.05854635744625642 -0.00690596892609874 1.453708395588042e-19)
(0.1000951629178144 -0.01177062531451338 0)
(0.1431600768956061 -0.01678015337831711 -1.61324278138043e-19)
(0.1849376313739313 -0.02160385408278883 0)
(0.2215562659842499 -0.02578958025015139 -2.616876503732465e-25)
(0.2511462385544224 -0.0291246559277945 -2.296793577698681e-19)
(0.2740764403218882 -0.03165827236663495 9.596378448323441e-20)
(0.2912324736567567 -0.03349931808318113 0)
(0.3034986154385523 -0.03475557074719349 -6.733865957738759e-20)
(0.3114058214587468 -0.03549252447036901 5.616812097918145e-20)
(0.3153421491398408 -0.03575882928552038 -4.653475642724888e-20)
(0.3156902358089207 -0.035602346238643 -3.836311425809783e-20)
(0.3129055220928248 -0.03507936486184794 7.866323876127296e-26)
(0.307510357555105 -0.03425580879746407 3.969262883537616e-25)
(0.3001050771411758 -0.0332002793201954 0)
(0.2912959688345875 -0.0319917457945006 2.867393965591155e-25)
(0.2818657887683702 -0.03071833869313737 -2.571251399364027e-25)
(0.2725985850930658 -0.02947622840018571 2.31603317247844e-25)
(0.2643591240026436 -0.02836818978531232 1.388260012921043e-20)
(0.2578400863155201 -0.02746755303750482 -4.074386993447666e-25)
(0.2534512600136093 -0.02681095514637287 9.824942989151667e-26)
(0.01951562654909224 -0.002315517496033695 9.133182865872279e-20)
(0.05941880266547202 -0.007029083847914334 0)
(0.1016597847888383 -0.01199029911161732 -1.482741389423514e-25)
(0.1454380342332403 -0.01710113911294709 0)
(0.1879458971195731 -0.02202748009038089 1.541046373510924e-19)
(0.2251648214952639 -0.02630021489390235 -2.558059549731645e-25)
(0.2553231042309296 -0.02971644848768542 0)
(0.2789311985466946 -0.03234200446380981 1.921817728447369e-19)
(0.2968487168330808 -0.0342824571351231 4.895901878681305e-26)
(0.309979282650739 -0.03564767877944004 6.802112842185119e-20)
(0.3189255851489102 -0.03651187437146745 -5.726391455349868e-20)
(0.3240468022179601 -0.0369199812438955 -4.792232562422668e-20)
(0.3256599912381036 -0.0369119438056041 3.986466055081661e-20)
(0.3241228341185505 -0.03653230756619141 -5.047963354641984e-25)
(0.3198683349357582 -0.03583440599132395 -2.754489615603465e-20)
(0.3133792491340601 -0.03487937872285689 2.315702990303903e-20)
(0.3052024652888922 -0.03372951561719495 -6.029505356913188e-25)
(0.2958970944347568 -0.03245856762145453 2.594599841970821e-25)
(0.2861959614028272 -0.03114929105238168 0)
(0.2768529556428069 -0.02989480402833807 9.490505121164588e-27)
(0.2686996360656175 -0.02879437425211639 0)
(0.2624079614916079 -0.02791849245967178 -3.780751158773996e-25)
(0.2583847065504435 -0.02730370956537265 -2.885363803209694e-25)
(0.0197891276740517 -0.002354131440882831 9.210213634388686e-20)
(0.0602800913549315 -0.007150475542536443 0)
(0.1031747023650352 -0.01220407007746147 1.523349368347962e-25)
(0.1476812822173122 -0.01741675198388463 0)
(0.1908250256707751 -0.02243575801165456 -2.972790539678639e-25)
(0.2286412740413193 -0.02679421467705146 5.26845985368533e-27)
(0.2593256079747076 -0.03028674726388566 0)
(0.2835386959509165 -0.03299574473774523 3.709453163049456e-25)
(0.3021803724933059 -0.03503171197582303 -1.619902680619971e-19)
(0.316070976847771 -0.03649468666148351 3.060986887968898e-26)
(0.325940348335113 -0.03747339222202721 -6.807868506312873e-27)
(0.332141933639915 -0.03801239688561053 4.184984336299602e-25)
(0.3349440916045077 -0.03814564022282609 3.181541551429553e-25)
(0.3346333363889445 -0.03790913102757074 -3.450534861009127e-20)
(0.3315539002806077 -0.03734550222823291 0)
(0.3261150079556013 -0.0365050480886077 0)
(0.3187602451778916 -0.03544424129107571 -2.064306746430842e-20)
(0.3099900776804029 -0.03421994628874799 -2.750191450762318e-25)
(0.3003263350527696 -0.03290189958481238 -4.744054232018e-25)
(0.290463302237384 -0.03156886608161957 4.363544666768179e-25)
(0.2811333290333116 -0.03031195838880688 1.304573237813765e-20)
(0.2731421159222864 -0.02922779726132627 1.234759369007021e-20)
(0.2671468676375342 -0.02838471015477779 0)
(0.2635572325588443 -0.02781994846731036 1.195624258229313e-20)
(0.02005769633783415 -0.00239205023916969 4.647313161505452e-20)
(0.0611265046769385 -0.007269883558474162 -1.487264655421275e-19)
(0.1046698668376363 -0.01241477131525257 0)
(0.1498522541226644 -0.01772376015009722 0)
(0.1936527240937733 -0.02283623496319909 0)
(0.2319654485938202 -0.02726991444684091 2.606614727315331e-25)
(0.2631647071218752 -0.03083644042021058 -1.143599054750042e-19)
(0.2879333626683893 -0.03362332772151355 9.641957379126394e-20)
(0.3072428061423835 -0.03574836608223999 0)
(0.321846013819593 -0.03730409401676059 -4.598093432044471e-26)
(0.332515324570729 -0.038383998435828 -1.180243813648559e-19)
(0.3396855758090871 -0.03904180405447384 -4.148007963099295e-25)
(0.3435872926805575 -0.03930726139780501 8.518076942093239e-20)
(0.3444471716521274 -0.03920911882180821 -5.573734414331553e-27)
(0.3425406440353415 -0.03878176749995516 -4.556388013011676e-25)
(0.3381999868373707 -0.03806616016911016 0)
(0.3318085664077234 -0.03710936995323719 3.264153667875994e-25)
(0.3237732359749148 -0.03596353876543364 0)
(0.3145555551237521 -0.03468103798419454 -1.626144178999936e-20)
(0.3046487696602543 -0.03332865352975746 0)
(0.2947179194030773 -0.03198230188880923 3.985112052983575e-25)
(0.2854804773913666 -0.03073191511187077 -1.231241454857428e-20)
(0.2777221576396061 -0.02967216015514314 -1.17775974658885e-20)
(0.272090403302152 -0.02886977156492652 -6.973921276982797e-25)
(0.2690029605728421 -0.02836343705790739 -1.164140186360843e-20)
(0.0203208690233624 -0.002429211621355603 1.680325471978317e-26)
(0.06195776843576796 -0.007387153544516425 -7.936338789519924e-26)
(0.1061394137666824 -0.01262206253153885 8.027554474150218e-20)
(0.1519923376634933 -0.01802601766038226 -1.643714399985049e-19)
(0.1963843989532737 -0.02322516900027339 0)
(0.2352187769174943 -0.02773505395334036 2.55531054997314e-25)
(0.2668554472900804 -0.03136804233227506 -4.409703328347467e-25)
(0.2921259112072814 -0.03422554796077491 9.659338683972154e-20)
(0.3120504692794661 -0.03643390999157451 -8.173755719072476e-20)
(0.3273231096212751 -0.03807755105504587 2.627896986936721e-25)
(0.3387250486801399 -0.03925140483904951 5.973258965512183e-20)
(0.3467447815303051 -0.04001523135808173 7.592232327348338e-27)
(0.3516437021799402 -0.04040199158448925 -8.758051117869512e-20)
(0.353601285830493 -0.04043511938381237 -3.719668261621776e-20)
(0.3528299516660858 -0.04014140516427341 3.147094461052338e-20)
(0.3496001878927714 -0.03955438382499019 0)
(0.3442300350900043 -0.03871311258755777 -2.264784887708123e-20)
(0.3370761623739383 -0.03766139350343294 0)
(0.3285125606047927 -0.03644753054740137 0)
(0.3189691700424201 -0.03512030253927206 1.496418674031013e-20)
(0.308918080311091 -0.0337444631175144 -4.161307641594335e-25)
(0.299002691435619 -0.03239403229983372 3.748840693597107e-25)
(0.2899308104592249 -0.03115842302850316 -7.065980833595794e-25)
(0.2824730219187021 -0.03013092802192776 6.984649468168676e-25)
(0.2772713412050193 -0.02937719056764563 -1.121457278557952e-20)
(0.2747560238510633 -0.0289380131960281 6.384498176896046e-26)
(0.02057974462901237 -0.002465760679723423 -4.742872247643474e-20)
(0.06277251638350859 -0.007502100265539419 -7.578480549274364e-20)
(0.1075828717383193 -0.01282566622530718 -1.619632009773935e-19)
(0.1540944973149086 -0.01832321999707484 -8.273218153085813e-20)
(0.1990698403316693 -0.02360712475231697 1.555769249359869e-19)
(0.2383536483510682 -0.02818578861342946 -2.612041713484053e-25)
(0.2704545038727843 -0.03188624854710374 0)
(0.2961629933920131 -0.03480863566834026 9.682962915623132e-20)
(0.3166171773127653 -0.03708940188812632 0)
(0.3325137304082925 -0.03881613335771826 -2.699135000393154e-25)
(0.344591697539355 -0.04007765267776066 -6.036483223073587e-20)
(0.3533935264144666 -0.0409402842590747 0)
(0.359179127439478 -0.04143662505252602 4.488778584674374e-20)
(0.3621444574067026 -0.04159162391066303 7.685704806905076e-20)
(0.3624512245705032 -0.04142632733099198 3.273874118030698e-20)
(0.3603095848490639 -0.04096700296362961 -2.783688702194133e-20)
(0.3559845405325049 -0.04024630580868568 3.583280877758253e-25)
(0.3497772658307292 -0.03930113284793686 2.035980315938076e-20)
(0.3420184880944597 -0.03817214106276541 5.334316805384818e-25)
(0.3330539462969943 -0.03690436976958655 -1.553278259877289e-20)
(0.3232886479903974 -0.03554383474999 0)
(0.3131797987056391 -0.03415404541258577 -3.902172127589302e-25)
(0.3033554491625853 -0.03280793053480922 -1.176562012246551e-20)
(0.2945178819193086 -0.0315949264622046 1.120458906402652e-20)
(0.2874267286788323 -0.03060745674306984 6.600024089736982e-25)
(0.2827221407612296 -0.02991050258962144 2.189874337385624e-20)
(0.2808520916927561 -0.02954776577058489 7.266108116465963e-25)
(0.02083324686803235 -0.002501585574347002 -7.303109607377311e-26)
(0.06357396448488535 -0.007615150796214043 7.658586588522854e-20)
(0.1089979828954873 -0.0130252724974384 0)
(0.156158144747421 -0.01861497355877624 1.666874884221237e-19)
(0.2017027493629359 -0.02398203956131843 1.562500723848564e-19)
(0.2414245008351091 -0.0286270025911943 1.358402925916896e-19)
(0.2739118022248029 -0.03238709469577759 0)
(0.3000826918654488 -0.03537502038136668 -9.707775835250373e-20)
(0.3209948826712593 -0.03772167671241287 -8.25616536299893e-20)
(0.3374607108037827 -0.03952424159033045 -5.329004068652771e-25)
(0.3501409713620853 -0.04086538473357984 4.601539316102331e-25)
(0.3596569502408433 -0.04181932531297353 5.294520124510655e-20)
(0.3662644307056265 -0.04241837621514175 3.465813377774599e-25)
(0.3701390030917198 -0.0426849466561624 0)
(0.3714474260329458 -0.04264028719464794 -6.118949883909239e-25)
(0.3703507988653751 -0.04230508839969292 -2.903209818743085e-20)
(0.3670599199719681 -0.04170546310848618 2.48253372332336e-20)
(0.3618314270680438 -0.04087288366015819 2.132156226638357e-20)
(0.3549480642093413 -0.03984193850368236 -1.127023345451633e-24)
(0.3467166511165997 -0.03865040787963435 1.617593032572515e-20)
(0.3374594929164181 -0.03734066150624581 2.874739042142048e-20)
(0.3275626207611839 -0.0359566982501622 3.920272643677422e-25)
(0.3174736574285476 -0.03456146402337502 1.458575412377944e-24)
(0.3078105939023232 -0.03322749183714672 1.122396630212671e-20)
(0.2992735455390846 -0.03204469868092343 -2.158852267936764e-20)
(0.2926146273695641 -0.03110506790597288 1.063994558240756e-20)
(0.2884764947218799 -0.03047343603112522 -7.683910057078635e-25)
(0.2873285258151501 -0.03019705767056209 1.11748291947481e-20)
(0.02108376759328822 -0.002536956671415992 0)
(0.06435899297288211 -0.007725988968517035 8.089350848050468e-26)
(0.1103899590903024 -0.01322157990957606 -8.258733565808474e-20)
(0.1581802863558345 -0.01890086037336141 0)
(0.2042827850302875 -0.02434945675691801 -7.852020028579002e-20)
(0.2444278887545847 -0.02905910424968077 -6.811044473487535e-20)
(0.2772844125395822 -0.03287558370437885 -2.266921035769328e-25)
(0.3038349562168451 -0.0359208527253821 0)
(0.3252237199793457 -0.03833335767517344 8.293912733402508e-20)
(0.3421793932164609 -0.040204446417224 7.105661530614328e-20)
(0.3554335981157832 -0.04162103874917368 -4.739607449497727e-25)
(0.3655680922456915 -0.04265574838290892 -4.135609620103374e-25)
(0.3729267960537017 -0.04334982041815445 4.680853928099916e-20)
(0.3776507613058981 -0.04372170180023582 0)
(0.3798760428717338 -0.04378897777365284 0)
(0.3797611242505788 -0.04357168128570875 -3.020351869481493e-20)
(0.3774729429407196 -0.04309092478688933 0)
(0.3732214107359969 -0.04237251087119762 -2.231781708051391e-20)
(0.3672519302141485 -0.04144642100178304 3.843474891668356e-25)
(0.3598286108018451 -0.04034493930126278 5.099865207356908e-25)
(0.3512372085137926 -0.03910332809536903 -1.493390474740255e-20)
(0.3417812894093588 -0.03776186834480559 -1.49114421533672e-24)
(0.3318331422265563 -0.03636320756006069 -7.539275224097614e-25)
(0.3218353332667553 -0.03497032559785138 -7.008044235537532e-25)
(0.3124003323796179 -0.03365597495503855 6.649551680428184e-25)
(0.3042285870428095 -0.03251092322623744 2.08785030771624e-25)
(0.2980689310577515 -0.03162722027116041 -1.041430281691886e-20)
(0.2945695448167064 -0.03106995795568113 -8.739445022183658e-26)
(0.2942240644634807 -0.03089043961617732 0)
(0.0213305926367495 -0.00257180220735287 -9.272248809022853e-26)
(0.06513485045691682 -0.007835422397603695 0)
(0.111753911068744 -0.01341410688160953 -8.348659217551103e-20)
(0.1601677762359849 -0.01918181278059579 0)
(0.2068067758681135 -0.02470891784609084 0)
(0.2473642951808337 -0.0294816599878022 -6.834990525249497e-20)
(0.2805737639935376 -0.03335281040338517 4.44462501612192e-25)
(0.307478243456386 -0.03645112639798182 1.912975353904661e-25)
(0.3292586284373138 -0.03892123894596596 3.211562730480373e-25)
(0.3467148322573417 -0.04085988591662692 -5.39932038504559e-25)
(0.36046464674324 -0.0423448166544855 -6.201967492237313e-20)
(0.3711848325534023 -0.0434556431356013 -4.101395504660735e-25)
(0.3792039778601494 -0.04423480368008324 0)
(0.3847078991216811 -0.04470455664322207 -4.165096214267744e-20)
(0.3877967728917853 -0.04487829443481959 3.622223206162033e-20)
(0.3885926454134233 -0.04477179995348083 -4.830928175073774e-25)
(0.3872557200212368 -0.04440508290534321 -2.703885425121762e-20)
(0.3839590214145487 -0.04379972756577483 0)
(0.3789085929448466 -0.04298089584449002 2.02139430370308e-20)
(0.3723367223021675 -0.0419768804533972 -1.764315421169419e-20)
(0.3644898371417205 -0.04081779636333514 0)
(0.3556358775266727 -0.03953679229993072 8.565311444555542e-25)
(0.3460640732368275 -0.03817260933963187 -1.258163735105526e-20)
(0.3361375582976455 -0.03676713901618996 0)
(0.3262977732089553 -0.03538393133758657 0)
(0.3171553714177635 -0.03409649179386032 0)
(0.3094142510659919 -0.03299686232405707 1.020296492194714e-20)
(0.3038230072536821 -0.03217755894858797 -1.025458588240854e-20)
(0.3010377100704642 -0.03170428458766375 -1.057686573740038e-20)
(0.3015794393002573 -0.03163269173951859 -1.121402596909555e-20)
(0.02157359424980988 -0.002606023356499861 -4.977939081393196e-20)
(0.06589934769740008 -0.007943242883946237 0)
(0.1131019504286224 -0.01360418674248162 0)
(0.162114657795096 -0.01945726477505949 8.556531001515679e-20)
(0.2092827840775923 -0.02506154108094475 0)
(0.2502311000494939 -0.02989426157703652 -6.863927326853965e-20)
(0.283781884190413 -0.03381846499067751 5.785904421246188e-20)
(0.3110204981573648 -0.03696779780139275 0)
(0.3331571122373525 -0.03949003880948814 1.755550012742776e-25)
(0.3510340875567741 -0.04148882160118597 1.129893283667366e-26)
(0.365282332436101 -0.04304016354113467 -4.719878651380743e-25)
(0.3765113033735596 -0.04422026014944766 5.492240061472064e-20)
(0.385151569991367 -0.04507912532777614 -4.84116403837023e-20)
(0.3913505007106942 -0.04563753905809027 0)
(0.3952378094753544 -0.04591088890693674 3.725986071613088e-20)
(0.3968985367947116 -0.04591058576595954 -3.243783226492493e-20)
(0.39645490125644 -0.04565228863513714 -2.812730405374703e-20)