/*--------------------------------*- C++ -*----------------------------------*\
| =========                 |                                                 |
| \\      /  F ield         | OpenFOAM: The Open Source CFD Toolbox           |
|  \\    /   O peration     | Version:  2006                                  |
|   \\  /    A nd           | Website:  www.openfoam.com                      |
|    \\/     M anipulation  |                                                 |
\*---------------------------------------------------------------------------*/
FoamFile
{
    version     2.0;
    format      ascii;
    class       volVectorField;
    location    "518";
    object      wallShearStress;
}
// * * * * * * * * * * * * * * * * * * * * * * * * * * * * * * * * * * * * * //

dimensions      [0 2 -2 0 0 0 0];


internalField   uniform (0 0 0);

boundaryField
{
    airfoil
    {
        type            calculated;
        value           nonuniform List<vector> 
121
(
(-0.0008806459618819974 9.377960183135282e-05 2.444465602609186e-27)
(-0.0008655729096684022 9.288525312067355e-05 4.891191914989504e-21)
(-0.0008507781513341293 9.196173945554729e-05 -2.074561354280661e-27)
(-0.0008363445642046072 9.102880634266711e-05 -4.624503279843288e-21)
(-0.0008221965507634353 9.008645216214508e-05 0)
(-0.0008083119485015959 8.912323230555979e-05 4.391018410645553e-21)
(-0.0007946976410577519 8.814421239128176e-05 0)
(-0.0007813339446270689 8.716010697783172e-05 -4.186507916938749e-21)
(-0.0007682020151416647 8.616532580579991e-05 4.093854072023855e-21)
(-0.000755310936302099 8.515988193504293e-05 4.007066892384142e-21)
(-0.0007426323746561608 8.414482789412492e-05 -7.851644153536771e-21)
(-0.0007301711748214328 8.312315397279611e-05 -1.287074478654247e-37)
(-0.0007179311390655933 8.209752070175142e-05 3.778479615635513e-21)
(-0.0007059147134946678 8.1070101172494e-05 3.711673772603302e-21)
(-0.0006941121842749657 8.004151060211831e-05 -3.64910137411696e-21)
(-0.0006825110007911522 7.901189950504385e-05 -3.590521810845368e-21)
(-0.0006711097669184785 7.798259793588543e-05 9.091912554988423e-28)
(-0.0006599092878578583 7.69549998059462e-05 2.29588740394978e-41)
(-0.0006489132748056842 7.593119105831197e-05 -6.872473255645201e-21)
(-0.0006381170953037725 7.491135230915044e-05 -1.58648011660423e-27)
(-0.0006275400278009524 7.389930509300261e-05 1.62751378071114e-27)
(-0.0006171596361432909 7.289323490630182e-05 3.309560382373747e-21)
(-0.0006070046820721116 7.189834106254287e-05 3.272661200401695e-21)
(-0.0005970452062918216 7.091108572715672e-05 1.619093418643886e-21)
(-0.0005872979941791222 6.993517610070603e-05 -1.603005747822108e-21)
(-0.0005777591287800952 6.897099725615144e-05 -3.028980120932924e-27)
(-0.0005684304602689527 6.801923626135122e-05 -1.574010065855369e-21)
(-0.0005593160294695472 6.707994770279676e-05 -1.560984600831104e-21)
(-0.0005504154755872073 6.615534992825641e-05 1.548887497673105e-21)
(-0.0005417348097944362 6.524755058335009e-05 1.495826560591715e-27)
(-0.0005332557167642277 6.435433903114348e-05 1.14794370197489e-41)
(-0.0005249966597543522 6.347914415597143e-05 -1.517683135752033e-21)
(-0.0005169490910852687 6.261793454073492e-05 1.508836812577277e-21)
(-0.0005091265605361778 6.177688387992076e-05 -1.500741515786847e-21)
(-0.0005015154598228932 6.095539786118391e-05 7.466735914380353e-22)
(-0.0004941175178239314 6.015132918758701e-05 -7.433120792729243e-22)
(-0.0004869567515218947 5.936785201766045e-05 1.382985098182742e-27)
(-0.0004800091913281709 5.860608560210592e-05 -1.43582772650356e-27)
(-0.0004732814133966768 5.78650396578166e-05 1.134144835736991e-38)
(-0.0004667774468775551 5.714283149862273e-05 -1.949782377804351e-38)
(-0.0004604933627943438 5.644613274270587e-05 -7.313833360533692e-22)
(-0.000454421638557355 5.576707863507439e-05 1.45985385499168e-21)
(-0.0004485796144059199 5.511278746882237e-05 0)
(-0.0004429366269557297 5.447963700994078e-05 2.869859254937225e-42)
(-0.0004375202504084705 5.386739582904753e-05 3.637252348896028e-22)
(-0.0004323057915660224 5.327976521244441e-05 1.358511458519975e-27)
(-0.0004272997754833825 5.27096792776593e-05 3.636913300698164e-22)
(-0.0004225005427250983 5.216634545372403e-05 3.639335194913651e-22)
(-0.0004178960743742484 5.16390687631998e-05 7.286540509410367e-22)
(-0.0004134920651903429 5.113812990534326e-05 3.649092221804612e-22)
(-0.0004092745515127599 5.065301139837362e-05 5.050952288689517e-39)
(-0.0004052492936785179 5.019302116144345e-05 -7.331926055880026e-22)
(-0.0004013969497520618 4.974839444680265e-05 1.374539587361159e-27)
(-0.0003977350720386006 4.932728582006657e-05 -5.627516318186109e-29)
(-0.0003942303320920507 4.892318583385206e-05 1.852737873216637e-22)
(-0.000390907924650863 4.853730514813378e-05 -1.861353522562394e-22)
(-0.0003877408770386365 4.817277602996437e-05 -4.496335897440358e-28)
(-0.0003847265157174573 4.782143734772401e-05 -1.88182257346777e-22)
(-0.0003818785041443593 4.749106573397514e-05 0)
(-0.0003791580147942869 4.717581174302132e-05 1.427216936703272e-27)
(-0.0003765922619284175 4.687504398671356e-05 -9.606258676052359e-23)
(-0.0003741604921110169 4.659235038420373e-05 9.684295795086641e-23)
(-0.001389782115431245 0.0001727710388259838 5.308154794766098e-22)
(-0.001381116218895027 0.0001716082231890488 -1.927186397871393e-28)
(-0.001372614935889748 0.0001704685602596332 5.092320244415139e-22)
(-0.001364025667411243 0.0001693162645720295 -7.701900155168615e-27)
(-0.001355400006303841 0.0001681462748332183 -4.886869806132656e-22)
(-0.001346708322825826 0.0001669759640403548 7.218158019341455e-27)
(-0.00133791382591041 0.0001657799552752724 4.691926957106996e-22)
(-0.001329066033570964 0.000164576905799524 -4.598248040335163e-22)
(-0.00132007066977228 0.0001633525356458472 9.014591578896726e-22)
(-0.001310865936478256 0.0001620926618580421 0)
(-0.001301527995721173 0.000160819303542811 -1.14794370197489e-41)
(-0.001292074108266515 0.0001595187894648548 8.498433210286966e-22)
(-0.001282483001862429 0.0001582059869735665 -8.336870774721696e-22)
(-0.001272807354348378 0.0001568682148626916 -1.560055490983876e-38)
(-0.001262984882137685 0.0001555166634181892 6.193444556178725e-27)
(-0.001253032206020542 0.0001541367347550665 7.880589488052361e-22)
(-0.001242962663354282 0.0001527425755806765 1.547694162194102e-21)
(-0.001232745595953143 0.0001513230114710773 4.386292885246055e-38)
(-0.001222372077965309 0.0001498774029036627 -5.76074861842224e-27)
(-0.00121185109712288 0.0001484143261556587 -1.468127985604765e-21)
(-0.001201180544207919 0.0001469202725547951 2.886982295236274e-21)
(-0.001190375929560383 0.0001454088547422193 5.475057195401514e-27)
(-0.001179336706846901 0.0001438646271774616 -5.270583448429497e-27)
(-0.001168132228666206 0.0001422895672722876 5.302690963383309e-27)
(-0.001156778835729546 0.0001406951110839053 -2.70870648093403e-21)
(-0.001145232672583331 0.0001390732318957187 2.668793164299496e-21)
(-0.001133509705579359 0.0001374187363135847 5.070974750107948e-27)
(-0.001121561056914683 0.0001357341115109375 -3.86334446601821e-27)
(-0.001109437160995012 0.0001340247121618341 2.559941433153862e-21)
(-0.001097104444486171 0.0001322841554108417 4.769028976686335e-27)
(-0.001084562604380867 0.0001305100097372072 0)
(-0.001071820097161668 0.0001287075166128518 3.968876663123391e-27)
(-0.001058911994398359 0.0001268799468499953 2.440402987088728e-21)
(-0.001045715687932112 0.000125013815580257 -6.905425123643069e-28)
(-0.001032286700286607 0.0001231146637908214 -2.391780908786677e-21)
(-0.00101856917329389 0.000121175191626495 -4.740604861984114e-21)
(-0.001004588571877512 0.0001191988252640922 -4.701409301093015e-21)
(-0.0009903497521140977 0.0001171882155575879 -4.49543024099029e-27)
(-0.0009759179426796526 0.0001151475173145495 4.634587618480374e-21)
(-0.0009609971553382432 0.0001130492009264995 -4.438422561973002e-27)
(-0.0009458555649337122 0.0001109159995952201 4.32650011330378e-27)
(-0.0009300394345016709 0.0001087040478202504 4.564156050201508e-21)
(-0.0009137584710399943 0.0001064335630655873 -4.548897183857223e-21)
(-0.0008969315646637303 0.0001040970580571264 4.591774807899561e-41)
(-0.0008795229462154961 0.0001016912771539193 4.531282245718406e-21)
(-0.0008611466259931963 9.917260693540632e-05 -1.14794370197489e-41)
(-0.0008419898750894096 9.65645269750089e-05 4.365758475473084e-27)
(-0.0008221743532128131 9.38821310095263e-05 -8.657901782536933e-27)
(-0.0008016279093918074 9.111844203221712e-05 4.296569230264414e-27)
(-0.0007802467081271906 8.826316436455939e-05 1.14794370197489e-41)
(-0.0007579465819828218 8.530939686193884e-05 4.592372205600448e-21)
(-0.0007345653541416557 8.224599762439162e-05 -9.156242092263768e-29)
(-0.000710348842543727 7.909226135011328e-05 8.883783840964991e-27)
(-0.0006846950152708296 7.579957118644149e-05 -4.43478805751411e-27)
(-0.0006585802405488123 7.245984825001486e-05 -2.290079882613154e-27)
(-0.0006318140409606776 6.906724527145298e-05 -4.808812117524603e-21)
(-0.0006055582030225585 6.575089492004562e-05 4.876847384416656e-21)
(-0.0005804855936713564 6.258471425823067e-05 4.954206062066063e-21)
(-0.0005568568014703593 5.958456672013236e-05 4.416483804607995e-37)
)
;
    }
    farfield
    {
        type            calculated;
        value           uniform (0 0 0);
    }
    side
    {
        type            empty;
    }
    procBoundary3to0
    {
        type            processor;
        value           uniform (0 0 0);
    }
    procBoundary3to1
    {
        type            processor;
        value           uniform (0 0 0);
    }
    procBoundary3to2
    {
        type            processor;
        value           uniform (0 0 0);
    }
}


// ************************************************************************* //
