/*--------------------------------*- C++ -*----------------------------------*\
| =========                 |                                                 |
| \\      /  F ield         | OpenFOAM: The Open Source CFD Toolbox           |
|  \\    /   O peration     | Version:  2006                                  |
|   \\  /    A nd           | Website:  www.openfoam.com                      |
|    \\/     M anipulation  |                                                 |
\*---------------------------------------------------------------------------*/
FoamFile
{
    version     2.0;
    format      ascii;
    class       volScalarField;
    location    "518";
    object      k;
}
// * * * * * * * * * * * * * * * * * * * * * * * * * * * * * * * * * * * * * //

dimensions      [0 2 -2 0 0 0 0];


internalField   nonuniform List<scalar> 
114570
(
7.841486936546766e-08
9.120316101845534e-08
6.114470075351109e-08
2.303061427205816e-07
1.015217063052399e-07
2.019748465919828e-07
4.027801178014184e-08
2.497759288237495e-07
1.815526456598834e-06
1.066746055151092e-07
1.76208140401054e-07
1.577730841122162e-06
2.254402907354539e-08
2.61294130544314e-07
1.974013507485205e-06
7.823871132464962e-06
1.064977172170495e-07
1.517981672915127e-07
1.354634008131098e-06
6.842532362862788e-06
1.08974572767674e-08
2.697371230904615e-07
2.079249885190012e-06
8.418146313324139e-06
2.39798633136685e-05
1.002545133048718e-07
1.282958920026952e-07
1.147940424972105e-06
5.885236458727424e-06
2.110890174617325e-05
1.262544606501761e-08
2.709261120419663e-07
2.16558364782839e-06
8.817398242504543e-06
2.555401741164066e-05
5.927629299484393e-05
8.818083999632958e-08
1.056387270641818e-07
9.548041047592571e-07
4.995808403436676e-06
1.82017075698737e-05
5.251995838334758e-05
2.343794180968079e-08
2.651343705448413e-07
2.187133691475173e-06
9.175838710689376e-06
2.662202670521363e-05
6.267018190553796e-05
0.0001240093614858834
7.127344287047284e-08
8.406119567282129e-08
7.754505126208606e-07
4.165897856503833e-06
1.548801721385193e-05
4.544394001256577e-05
0.0001106504157136468
3.728651595978753e-08
2.541824859737128e-07
2.136990715028319e-06
9.263254265887575e-06
2.76711818998471e-05
6.499824668864223e-05
0.000130427203634605
0.0002217621057772402
5.176916900221095e-08
6.416623581288536e-08
6.115084206289406e-07
3.396213691934936e-06
1.295651661590285e-05
3.879484985099999e-05
9.629374649031976e-05
0.0001994060769921005
5.092828168173282e-08
2.408010629131721e-07
2.035033486465941e-06
9.043743483078726e-06
2.791833830261445e-05
6.747186959670888e-05
0.0001348705878566366
0.0002328161762724782
0.000342259281653293
3.318417732548853e-08
4.681939378376349e-08
4.667501309047432e-07
2.693782320373195e-06
1.06083184540285e-05
3.258443676488635e-05
8.266287191584431e-05
0.0001750971230811972
0.0003100407463188991
6.142665620890135e-08
2.246894669393199e-07
1.909891932588147e-06
8.604690113424236e-06
2.723869845939609e-05
6.803964064392665e-05
0.0001397796490427256
0.0002404751580592911
0.0003595280622664761
0.0004698364206982508
1.969333453326315e-08
3.305594855481046e-08
3.458013791947643e-07
2.074556595412953e-06
8.465494592056712e-06
2.681447125174813e-05
6.986633447822757e-05
0.0001516828539851897
0.0002751061958560565
0.0004281841222105336
6.714894252055888e-08
2.08361880548242e-07
1.762986774362637e-06
8.066318167707542e-06
2.590176565761007e-05
6.636371441519538e-05
0.0001409021001713663
0.0002486947145571982
0.0003714045402389951
0.0004941042080335766
0.000594892736527997
1.391592239952302e-08
2.375984461499661e-08
2.533809385539775e-07
1.558336823702843e-06
6.577057077615264e-06
2.15415239408603e-05
5.791662276490066e-05
0.0001294645701013102
0.0002409778056393519
0.0003834350622811208
0.0005446420022991459
6.864444449759428e-08
1.93444718627032e-07
1.617666902799335e-06
7.437040137359836e-06
2.426202997008604e-05
6.310364916804675e-05
0.0001375071555086126
0.0002506175498842812
0.0003831622256805662
0.0005106572732077841
0.0006261356307206164
0.0007143022794518754
1.632358045400659e-08
1.89084913014441e-08
1.923718803172516e-07
1.165672122682059e-06
5.004539052331634e-06
1.689083529647513e-05
4.693673574911798e-05
0.0001085039343592824
0.0002081593002762479
0.0003392665548503844
0.0004911165401762842
0.0006562456352171985
6.82714619485721e-08
1.822430959659451e-07
1.488830606740693e-06
6.814548820298597e-06
2.235279995283919e-05
5.909259501097803e-05
0.0001309108404695956
0.0002450085827788737
0.0003860154498664323
0.0005256722955810165
0.0006473336190689156
0.000752134657892885
0.0008279378908462936
2.633940313094749e-08
1.695929157871687e-08
1.596069836926314e-07
9.094030598636211e-07
3.813373627173182e-06
1.301910963508e-05
3.721312704533856e-05
8.90164564671845e-05
0.000176804970745422
0.0002963081115562858
0.0004379327554633032
0.0005947532234373866
0.0007627299862712567
6.954252081248207e-08
1.775962961372664e-07
1.394384926332622e-06
6.261783713072256e-06
2.046211502808296e-05
5.443647957073647e-05
0.0001227259031913858
0.0002339876807941171
0.0003783086613685034
0.0005294459081304994
0.0006652407559344688
0.000777746031548912
0.0008719127075043972
0.000936553599347362
4.150284449542611e-08
1.663546996622876e-08
1.401925595572465e-07
7.741717842647269e-07
3.045859714228573e-06
1.009725148985873e-05
2.909507879031613e-05
7.15900045553367e-05
0.0001471982816300203
0.0002547918788569009
0.0003857800817007706
0.0005333827363513329
0.0006938572221633025
0.0008647236892134478
7.605993567994758e-08
1.833483578660506e-07
1.354523999517694e-06
5.853569186394226e-06
1.877843419235314e-05
4.981482867469681e-05
0.0001132265137133822
0.0002201067803023448
0.000362875012926794
0.0005200734187257788
0.0006698698952225216
0.0007982631599059777
0.0009016838417856644
0.0009862757243420635
0.001040986131008213
5.769831694180104e-08
1.767580347415084e-08
1.232203979217469e-07
6.862445409919562e-07
2.649337570277927e-06
8.238946491564181e-06
2.297391336355554e-05
5.691289798450589e-05
0.0001203428008218785
0.0002150920724848367
0.0003349337782502389
0.0004728651655264553
0.0006248960216953528
0.0007889121934061489
0.000962965610342564
9.200208106702929e-08
2.026309813893433e-07
1.39617535718691e-06
5.673896806472239e-06
1.752402253370154e-05
4.568309248900519e-05
0.0001037473640211889
0.0002039235365690252
0.0003430889485736234
0.0005009275932689376
0.0006591883008201611
0.0008036853056497383
0.0009246145858327991
0.001019994614691282
0.001096139329827064
0.001141926531235118
7.357818376156259e-08
1.910777364508021e-08
1.108373531715122e-07
5.942251184089663e-07
2.3667211381656e-06
7.296169366178507e-06
1.911651464248336e-05
4.577792628942624e-05
9.739271092618015e-05
0.0001785320861829921
0.0002858890772484914
0.0004134946457341843
0.0005566365265031709
0.0007127961649887733
0.0008805680606825371
0.001058071477764253
1.220043924170208e-07
2.395536475578456e-07
1.540566341876949e-06
5.834301038389377e-06
1.694802386537822e-05
4.257374880444916e-05
9.521829961138305e-05
0.0001876144476346402
0.0003198516623223504
0.0004759929299762488
0.0006369826074864517
0.0007919110904122032
0.0009307833642849212
0.001045203528718487
0.001133649916466531
0.001202271287086833
0.001239884358226732
7.88550589341745e-08
2.046084064192678e-08
1.004763663093461e-07
5.176119370497579e-07
2.02853265376122e-06
6.553957710233796e-06
1.716473485945671e-05
3.873480929633439e-05
7.970339438150004e-05
0.0001467750140043452
0.0002401236147053349
0.0003559015672551801
0.000489386660875596
0.0006372594022646266
0.0007976336706223864
0.0009693841964372788
0.001150491338658114
1.714222501130276e-07
2.967631492364684e-07
1.816044297577494e-06
6.423107629784907e-06
1.737934150912528e-05
4.108348218364981e-05
8.87195500611383e-05
0.0001727849494771182
0.0002961428934861241
0.0004465169226333019
0.0006076965665442938
0.0007670640121552338
0.0009180468373802332
0.001052088398572229
0.001161044746581774
0.001243472257836823
0.001305248434148918
0.001335206850558655
5.836660895253773e-08
2.087296258691854e-08
8.452832657522492e-08
4.516573250021706e-07
1.726470491318294e-06
5.572386322583926e-06
1.546826702800467e-05
3.504221597233211e-05
6.821451864445617e-05
0.0001217422935728218
0.0001997754749846697
0.0003016072623905127
0.0004238808732997269
0.0005626338193030889
0.0007151800568482536
0.0008799069857711426
0.001055772812594599
0.001240523435489752
2.431988929546435e-07
3.74206853230394e-07
2.238790981080777e-06
7.557620262559612e-06
1.907990859352732e-05
4.199270361147258e-05
8.546406997142212e-05
0.0001613033708585557
0.0002743053500866064
0.0004161103198758967
0.0005729140823350312
0.0007339599834775102
0.000890812891061922
0.00103847817052852
0.001168628871395091
0.001272993931557641
0.001350088251133818
0.001405475442913499
0.001428108763996136
3.721723605087896e-08
1.712491126572317e-08
7.562291590217928e-08
3.551133496732448e-07
1.464566817386456e-06
4.654638756459733e-06
1.309258499843882e-05
3.161283273349281e-05
6.16681215823418e-05
0.0001047511025222068
0.000167232090354451
0.000253143229434694
0.0003617450652001548
0.0004897429363517508
0.0006335825891900734
0.000790830527068107
0.0009599905748002995
0.001140004734975128
0.001328340322639621
3.33086709036665e-07
4.661068043162077e-07
2.802370926903027e-06
9.304389588908735e-06
2.239282306014011e-05
4.59223749886256e-05
8.701467579627711e-05
0.0001552824910700167
0.0002570907881497327
0.0003877715874501897
0.0005367265773231598
0.0006945104369959577
0.0008542137846399777
0.001009022330923351
0.0011542153222992
0.001281272663368175
0.001381705846080576
0.00145394758191638
0.001503216185708445
0.001518700421089078
2.886544004643485e-08
1.33189029491192e-08
7.111022326805482e-08
2.988178256856195e-07
1.098753805540542e-06
3.854682185855229e-06
1.079760526402332e-05
2.683572343474099e-05
5.560030267483272e-05
9.409149063046456e-05
0.0001441218790129486
0.0002132683231144157
0.0003057090625660172
0.0004203528633557692
0.0005537511188856085
0.0007025992780560632
0.0008645438678022542
0.00103813204665264
0.001222230913788497
0.001414014409396036
4.082122877210956e-07
5.614247065976621e-07
3.456923925789484e-06
1.163427338504124e-05
2.750794286593919e-05
5.366008130446836e-05
9.459239162123333e-05
0.0001573884631639943
0.0002476484133910242
0.0003650547854668763
0.0005026764798649954
0.0006531931110773269
0.000810482777824108
0.0009691284143684178
0.001122655896773854
0.001266119479044441
0.001390686066960867
0.001487656128085321
0.00155535517265131
0.001598623380589084
0.001607011391000698
3.194990714483216e-08
1.311050450337902e-08
6.426802921448951e-08
2.826938623482748e-07
8.812097969885175e-07
2.782550895301482e-06
8.77149314409439e-06
2.208972211511098e-05
4.780340974458261e-05
8.46929783823394e-05
0.0001284899586231662
0.0001838111151405807
0.0002588605042486458
0.0003572974397307577
0.0004775787940696041
0.0006162148366620576
0.0007699754203451128
0.0009365429089625305
0.001114468196708912
0.001302505086058564
0.001497540081260152
4.109124676665771e-07
6.254443502680735e-07
4.117888154367505e-06
1.43364710229155e-05
3.432424675677084e-05
6.559952228051259e-05
0.0001096402743377613
0.0001696257703259318
0.0002498767569923254
0.0003520778468718473
0.0004749852723940818
0.0006140087822795732
0.0007644253137259758
0.0009213465673727324
0.001079598291560736
0.001232549693691803
0.001374856205846395
0.00149735627024049
0.001591175361280922
0.001654501871832675
0.001691763658342104
0.001693010272832626
5.238597296948703e-08
2.317086075149775e-08
7.14177925771908e-08
2.579767116920912e-07
8.272723021384214e-07
2.141546021692277e-06
6.141284664192156e-06
1.775676925556861e-05
3.989991921267626e-05
7.40872312373354e-05
0.0001154054176371989
0.0001629077333291715
0.0002231144040753521
0.000303879461799924
0.0004080233105219136
0.0005336918137788651
0.0006773902293681349
0.0008359098668223388
0.001006951576146884
0.001189044653345034
0.001380804334378367
0.001578852683116206
2.995336738513836e-07
6.096027834031661e-07
4.54447870759271e-06
1.705521186890298e-05
4.220124250155668e-05
8.140312624720878e-05
0.0001326799645949497
0.0001940867990969465
0.0002665980211905391
0.0003538816018633979
0.0004585955844958232
0.0005817358351873855
0.0007204412562070469
0.0008707705715825682
0.001027906436697238
0.001186419939537825
0.001339356063407459
0.001480915405684025
0.001601625995345717
0.001692480889018857
0.001751490039223009
0.001782638203803591
0.001776621559525956
8.385911614431231e-08
7.664026163722861e-08
1.464262060940114e-07
2.876342098646864e-07
7.556237269655418e-07
1.989956158690188e-06
4.567123084534709e-06
1.219592806946888e-05
3.220188082947167e-05
6.339710368558403e-05
0.0001024283691220834
0.0001459824345779894
0.0001969237267611197
0.0002620836148503847
0.0003484611206990449
0.0004580976980268538
0.0005889228640591365
0.0007374573399792961
0.0009005156003341309
0.001075811419361654
0.001261834303351365
0.001457047277124949
0.001657845282787912
1.441656154368542e-07
4.804096808536375e-07
4.412487401494958e-06
1.880062633396095e-05
5.007559315029246e-05
9.9458709607745e-05
0.000162655888118028
0.0002310066302649112
0.0003003500092666069
0.0003740649122983817
0.0004595345047304588
0.0005620183934470394
0.0006837868788849962
0.0008221563229151561
0.000972932897055105
0.001130904930237007
0.001290221424923089
0.001443558086326734
0.001584644912593286
0.001703725670040576
0.001791703253561182
0.001846354608840405
0.001871200092663962
0.001857740709752983
1.190090994745499e-07
2.119662139340377e-07
5.41771688143574e-07
5.920279459309253e-07
8.404047641520296e-07
1.817379096079922e-06
4.199725046160366e-06
8.844184975286053e-06
2.208293303123449e-05
5.221945150369336e-05
8.986486588842302e-05
0.000130806703217471
0.0001760731147692944
0.0002306998106308021
0.0003009574106592477
0.0003928405128050166
0.0005077340151791437
0.0006434402303409368
0.0007965234395609823
0.0009638338001065633
0.001143098432447389
0.001332754631163107
0.001531110947772754
0.001734384320663821
5.646744513705675e-08
3.095484933450341e-07
3.501663444528057e-06
1.824183741463058e-05
5.509390375094508e-05
0.0001172317379530325
0.0001960910231186898
0.0002778439648997987
0.0003506671839159316
0.0004155091177564223
0.0004821482417201526
0.0005617462217552277
0.0006607189061766761
0.0007811790159157271
0.0009197556873383132
0.001071593027880797
0.001230936080011601
0.001391471216192405
0.001545501301949243
0.001686282308457821
0.001803800054804209
0.001888907642746076
0.00193908025057521
0.001957369240011866
0.001936248284887105
1.558742686354628e-07
4.309714829249263e-07
1.566717194211388e-06
2.198958387016174e-06
1.724438512273092e-06
2.01541047527416e-06
3.834737206647527e-06
8.05922077539175e-06
1.582245083164246e-05
3.654873828710872e-05
7.614010799718666e-05
0.0001169412726319592
0.0001585972876975195
0.0002058623806140366
0.0002645190862418329
0.0003399757514219968
0.0004372161583307073
0.00055709116952498
0.0006973503914917892
0.0008546344426656939
0.001025848894457281
0.001208739261202741
0.001401684187078123
0.001602847240731213
0.001808325078625744
2.30894652902485e-08
2.484601434132926e-07
2.307784887207251e-06
1.447770452479163e-05
5.343484902695682e-05
0.000128379848274562
0.0002280841479791444
0.0003284720126796852
0.0004131376152120423
0.0004770436356596244
0.0005297074113399103
0.0005860073404070119
0.0006589058785947839
0.0007546413378988005
0.0008744210193802638
0.001013856119350612
0.001167305542924466
0.001328445823472722
0.001490505627959248
0.001645423893166883
0.001785981666457622
0.001901929537495382
0.001984108889560759
0.002029615951668334
0.002041045924613784
0.002011922736160454
1.979230011211374e-07
7.292360640413617e-07
3.244383933395206e-06
6.376839305928623e-06
6.399053935501995e-06
4.116019572767988e-06
4.240471619909796e-06
7.361326188990145e-06
1.433132109330331e-05
2.632615341325491e-05
5.533524275413497e-05
0.0001017427094361303
0.0001436003019837787
0.0001859069496526729
0.0002356503243846769
0.0002986423772030665
0.0003793314651778531
0.0004817345300718503
0.0006062734652870754
0.0007507068872946363
0.0009117881484689787
0.001086503886306743
0.001272627379949498
0.001468479681770809
0.001672100110260508
0.001879375283683097
4.19976122409514e-08
3.675992679659046e-07
1.916605974075498e-06
9.54772431414332e-06
4.248848021258206e-05
0.0001245285878459427
0.0002476058341116621
0.0003753185868920376
0.000478968389179749
0.0005525655716216421
0.0006005531444833941
0.0006385522703476474
0.0006841880801168828
0.00075093085761846
0.0008442226672705416
0.0009640696297275961
0.001104971408655173
0.001260490279390899
0.001423755333917654
0.001587558166863531
0.001743483385527762
0.001883835212062112
0.001998148073934736
0.002077284720627614
0.00211788750855052
0.002122017802237365
0.002084578910541917
2.502366985887339e-07
1.108744980017194e-06
5.542250911145851e-06
1.322085500493183e-05
1.856083450758986e-05
1.522377222337302e-05
8.604347594250423e-06
8.119038482838875e-06
1.311136511433692e-05
2.381383486720163e-05
4.078047914580809e-05
7.720549066844899e-05
0.0001275908934326259
0.0001696844514167452
0.0002130250310008903
0.0002657196682730546
0.000333277601114799
0.0004191645862942601
0.0005264915423453347
0.0006553373971016203
0.000803521129270758
0.0009679478490763817
0.001145715606996821
0.001334640053326352
0.001532994259725758
0.001738464565089488
0.001947273179907794
2.252300855539328e-07
5.649929565477082e-07
2.907933150508604e-06
7.938693765422895e-06
2.809766899938968e-05
9.97385231179455e-05
0.0002404298658566961
0.000403020233622874
0.0005383223066638476
0.0006309944368468506
0.0006871980900562169
0.000717452669009366
0.0007408888599634081
0.0007766593482597607
0.000838218439057804
0.0009299691826178876
0.001050600439634021
0.001193495408074621
0.001351451026251105
0.001517087835676624
0.001682784497625982
0.001839777708315459
0.001979890822227986
0.002092457202276869
0.002168387742996975
0.002203683841446857
0.002200151945277284
0.002154143715168238
3.17155128431878e-07
1.560538613075532e-06
8.472752435892228e-06
2.259149447095459e-05
3.84317410357179e-05
4.398509441465805e-05
3.156339556995349e-05
1.632185476644298e-05
1.442958429887885e-05
2.186538560107041e-05
3.704840456336463e-05
5.887620662558746e-05
0.0001007577921419895
0.0001531320095696266
0.000195372011645511
0.0002402499750245381
0.0002963066117708366
0.0003685807278098404
0.0004595674036390447
0.0005715386846844498
0.0007043000001564022
0.0008557735254683222
0.001023055978771029
0.001203391014511827
0.001394657020170993
0.001594703009929373
0.001801632395589379
0.002012005759655864
6.95907141129755e-07
8.050408051728773e-07
4.470165042938485e-06
1.207927742458866e-05
2.340104583784834e-05
6.666807238891194e-05
0.0001956528865083045
0.0003920898741921838
0.0005725939296538359
0.0007006146894568799
0.000776568145842433
0.0008140721467018187
0.0008269915477555666
0.0008368154207269263
0.0008638155085142727
0.0009212376541393016
0.001012323607452846
0.001134384540556106
0.001279716016600298
0.001440399393634068
0.001608592440819627
0.001776283958395908
0.001934363168057021
0.00207416602027041
0.002184836625680414
0.002257229321265199
0.00228689915630037
0.002275382942853183
0.002220530470076009
4.055506667659089e-07
2.046989383177473e-06
1.19605625563765e-05
3.45318311764654e-05
6.549893220818311e-05
9.03862897381353e-05
8.990580366460532e-05
5.87707960290276e-05
2.860487518724987e-05
2.402409302577809e-05
3.422140955544664e-05
5.397081598973584e-05
7.96835610152082e-05
0.0001250663059051469
0.000178294255230752
0.0002209262174551066
0.0002678443090991732
0.0003276011857255205
0.0004046630250578486
0.0005005914394093365
0.0006168899530655258
0.0007531474557021864
0.000907424543697052
0.001077048348397739
0.001259444723372917
0.001452037771944832
0.001653280844369266
0.0018616895700772
0.002073485959552143
1.422543912384909e-06
1.0778994429448e-06
6.199996241358149e-06
1.859052923582616e-05
3.566160350240842e-05
5.584666774310613e-05
0.0001341226236430923
0.0003261924548958595
0.0005582778647050044
0.0007402788838437513
0.0008552243179469456
0.0009135046094532279
0.0009328780575286769
0.000929453645188623
0.0009267619618716237
0.0009461015970785524
0.001000402395343099
0.001091638913091237
0.001215698680503319
0.001363836068640902
0.001527477069070362
0.001698364810402919
0.001868116666831099
0.002027268184894948
0.002166659129439719
0.002275144627941858
0.002343721254705463
0.002367521559827635
0.00234761758604011
0.00228370208822637
5.185489320189035e-07
2.532917648212043e-06
1.570793870806746e-05
4.872312542171134e-05
9.975081061084892e-05
0.0001524059143693283
0.0001807584917218707
0.0001618729125611669
9.934521535234193e-05
4.663524426023449e-05
3.755274001135112e-05
5.025214977769005e-05
7.384045502658587e-05
0.0001022002140689367
0.0001496936588559069
0.0002032013762232915
0.0002466074528615923
0.0002960293183461027
0.0003597535323001299
0.000441598368138115
0.0005422540388495988
0.0006625289121460327
0.0008018436901302393
0.0009584261429908377
0.001129869289611267
0.001313123200561643
0.001506466860302685
0.001708939527865992
0.001918565786423612
0.002131698359139352
2.112628942625435e-06
1.370421264768323e-06
7.884932326944417e-06
2.57796985480372e-05
5.482450699274776e-05
8.496686738860566e-05
0.0001139218960146612
0.0002325036340325652
0.0004743728742863047
0.0007232504433957825
0.0008997942959651132
0.001000611822409655
0.001041892582735558
0.001044105162596594
0.001025337438588047
0.001011165592241035
0.001023903280957693
0.001076048271176352
0.001168186779124027
0.001294743516856037
0.001445993546483623
0.001612775219888716
0.001786464145954016
0.001958318173016933
0.002118505006016823
0.002257268587442635
0.002363328919034086
0.002427870699414666
0.002445460444330124
0.002416794971322732
0.002343697928192453
6.579590894842211e-07
2.953485671713186e-06
1.942927160203762e-05
6.395310803186789e-05
0.0001401051303439075
0.0002290663456846806
0.0002968486212547113
0.0003120031266563216
0.0002583803659120725
0.0001528788856802115
7.079911232597491e-05
5.507827521496992e-05
6.935601982780914e-05
9.564419437608894e-05
0.000125761532876567
0.0001744850407708121
0.0002280406521454594
0.0002726494595108624
0.0003249893131890569
0.0003928801561189207
0.000479429114542392
0.0005845445517536596
0.000708415768639897
0.0008503395976635231
0.001008734158605095
0.001180659186170957
0.001364152914216962
0.001558306268212041
0.001761653247788953
0.001972285559710411
0.002186735449298479
2.643640687038675e-06
1.657591293582445e-06
9.447570343834741e-06
3.272348636506711e-05
7.577169885173107e-05
0.0001294835774340035
0.0001715757166188908
0.0002020849312251993
0.0003523684181470906
0.0006247473479211507
0.0008807215031351599
0.001049950942160034
0.001137156436548095
0.001162403187204527
0.001148338468621911
0.001115090866598249
0.001090385345728013
0.001097531608699801
0.00114844186154455
0.001242174170722861
0.001371661723841466
0.001526279386072147
0.001696350962925599
0.00187292773629442
0.002046910669666306
0.002208003733986501
0.002345968743951775
0.002449420010764303
0.002509583550946771
0.002520642773441666
0.002482905398080276
0.002400470799057024
8.178727028035521e-07
3.257883122080021e-06
2.261477318467441e-05
7.904171331027813e-05
0.0001830142213463525
0.0003169728258711999
0.0004335899361919144
0.0004913184253306548
0.0004710429778115943
0.0003700262286199146
0.0002155152920657262
0.0001002288412713527
7.591063431419357e-05
9.055396074384268e-05
0.0001186123626966815
0.0001500378504281895
0.0001994295567820417
0.0002530095671018373
0.0002992566955601101
0.0003548768157509774
0.0004270686456722773
0.0005181710098398346
0.0006274301147474507
0.0007544953159417033
0.0008985840492804826
0.001057420384191339
0.001229227875412713
0.001413056569894048
0.001607597098471156
0.001811511304011667
0.002023014751914375
0.002238566830891307
2.985812535182862e-06
1.938805267043188e-06
1.100524385754122e-05
3.908131783700069e-05
9.554474551939756e-05
0.0001763815512319069
0.0002551969569987768
0.0002975178009356915
0.0003144645395892908
0.0004800646015304427
0.0007699743671434261
0.001029406389364085
0.001191247315876114
0.001265647878063063
0.001275702146660387
0.001246053554974586
0.001199054355487166
0.001164698982998305
0.001167236607226722
0.001217797889115626
0.001313760075244899
0.001446553900358019
0.001604752751201308
0.001778241471308541
0.001957782595707252
0.002133848730972834
0.002295761096172139
0.002432800108670786
0.00253336736845909
0.002588760566926948
0.002592994410696199
0.002545868329750761
0.002454134532577713
9.89225156823475e-07
3.393676821785395e-06
2.486185206313289e-05
9.193732225661584e-05
0.00022505243134696
0.0004078983130351593
0.0005831238108723163
0.0006907422560704828
0.0007093758152297591
0.0006393493224353223
0.000486283910306091
0.0002822778345511584
0.0001331738253990586
9.894621771774124e-05
0.0001130066112692375
0.0001423762752604407
0.0001748765773396197
0.000224591290194647
0.000278298413628285
0.0003266075384961287
0.0003858162162757752
0.0004623673867720571
0.0005578173097943081
0.0006708619334657642
0.0008007075604640775
0.0009456700834817064
0.001104410854790552
0.001276227575802622
0.001459943401492724
0.001654506869317494
0.00185877214005967
0.002070735480194491
0.002287383930633476
3.13659530304602e-06
2.133140407808887e-06
1.268005615345801e-05
4.540195466377985e-05
0.0001130866811831292
0.0002177566654914675
0.0003368114551785727
0.0004254578672196049
0.0004491655771083024
0.0004382860938196387
0.0006065893984732145
0.0009079797580702184
0.001169704177556808
0.001324497698330109
0.001386798718803901
0.001382297523977581
0.001337586377868983
0.001277470868723255
0.001234323019908469
0.001233226613933745
0.001284295325628739
0.001383069650130075
0.001519492089878423
0.00168145422636824
0.001858475809110892
0.002040999424834438
0.002219147943913649
0.002381830049879853
0.002517739427659312
0.002615118449740236
0.002665325095293164
0.002662349125727292
0.002605729408367599
0.002505258354563219
1.145692234208161e-06
3.354507182637219e-06
2.576787316881101e-05
0.0001010128523578565
0.0002606117417817694
0.0004944632322138137
0.000731429086056292
0.0008990306812843338
0.0009633249560344913
0.0009284419387073092
0.0008050693396408119
0.0006007462157659419
0.0003495330187086931
0.0001679259701057944
0.0001232360156213827
0.0001362805171504489
0.0001668103034979757
0.0002002097754985595
0.0002500768130629294
0.0003040872745646213
0.0003548580082638373
0.0004179059198398335
0.0004987937354134747
0.0005983428541207069
0.0007147838762876111
0.00084628386708381
0.000991631734381688
0.001150398631936655
0.00132180459691608
0.00150504364029032
0.001699384697103995
0.001903423364861521
0.002115744655111468
0.002334043983899941
3.14258149136639e-06
2.210103906882609e-06
1.385206076084807e-05
5.218356501395163e-05
0.0001303070098951334
0.0002516418039777477
0.0004003806631006215
0.0005390242034022659
0.0006165328343501799
0.0006085685060927559
0.0005632473886052494
0.0007282669873397268
0.001038741373775374
0.001302349898536082
0.001450408239139039
0.001501134422510773
0.001482531824828244
0.001423155292716484
0.001350512803281504
0.001299436009317677
0.001295685839706032
0.001348090995038221
0.001450206134536033
0.001590531360862039
0.001756417163835398
0.001937035572265301
0.002122607016819495
0.002302876503832762
0.002466212649158662
0.002600761246897152
0.002694620089204921
0.002739129235669377
0.002728623446932184
0.002662828991436725
0.002554346975083887
1.255220234273798e-06
3.119630193204821e-06
2.528560942419811e-05
0.0001046767511200386
0.0002853453212090794
0.0005658048006868313
0.0008674251210110456
0.001098669393668973
0.001220961957979351
0.00122887688488538
0.001138691501865086
0.0009637662015953207
0.0007109000366466038
0.0004154571315475219
0.0002033807008446972
0.0001482673576431885
0.0001602594474145352
0.0001918645148321873
0.0002260265165906138
0.000276017836517101
0.0003305444874567101
0.0003841446757122613
0.0004512204155699222
0.0005363615664191945
0.0006397084182186168
0.00075864356632126
0.0008913108415926204
0.001037085027537484
0.001195514978707389
0.001366202964978544
0.001548758217350951
0.001742201297417601
0.00194588934584143
0.002159223991005706
0.002379289878789886
3.015533735119594e-06
2.184330584707251e-06
1.429438402646435e-05
5.688245008000531e-05
0.0001486882755540576
0.000284245972277939
0.000445633635321914
0.0006141801197972011
0.0007536634799283678
0.0008086723228491006
0.0007651192821848813
0.0006844747757041063
0.0008442040598668583
0.001162782828707934
0.001427991980806532
0.001569490203039887
0.001609001267996972
0.001576613079022276
0.001502893729172706
0.001418309478428743
0.001360198976064306
0.001354788387956954
0.001409329854270981
0.001515260515251145
0.001659719812258441
0.001829633893124668
0.002013957421091301
0.002202685870347613
0.00238506204817834
0.002548910170709751
0.002681836469407095
0.002771742985244782
0.002810094589028527
0.002791896802023497
0.002717453967815892
0.002602339117500087
1.277942327444618e-06
2.711726673175647e-06
2.328540937039521e-05
0.0001027123369180002
0.0002951731191677101
0.0006140793662035631
0.0009760831366255021
0.001276855499732461
0.001463228218675416
0.00152889328322326
0.001480562707339515
0.001338071755778022
0.001114765674893794
0.0008162524875642434
0.0004794112407986029
0.0002390151768303505
0.0001738812629353266
0.0001849468743669863
0.0002175076067956416
0.0002523612531134612
0.0003025627527201107
0.0003578279279691184
0.0004145863214649995
0.0004858127630566631
0.0005750623562848586
0.0006815809595662341
0.0008025143687747773
0.0009362404213205901
0.001082107547235517
0.00123996163318671
0.00140980802003411
0.001591003337091846
0.001783505047965515
0.001987656164036726
0.00220214806582139
0.002424454226256588
2.786091085900523e-06
2.073733262296841e-06
1.407286423287357e-05
5.863027204749938e-05
0.0001612742088337745
0.0003192677600213624
0.000489198932523373
0.0006568814293146297
0.0008289319299461696
0.0009635276354900938
0.0009936318053727013
0.0009152134374584484
0.0008005128685677538
0.0009545216437487842
0.001280646814476131
0.001547101203276738