/*--------------------------------*- C++ -*----------------------------------*\
| =========                 |                                                 |
| \\      /  F ield         | OpenFOAM: The Open Source CFD Toolbox           |
|  \\    /   O peration     | Version:  2006                                  |
|   \\  /    A nd           | Website:  www.openfoam.com                      |
|    \\/     M anipulation  |                                                 |
\*---------------------------------------------------------------------------*/
FoamFile
{
    version     2.0;
    format      ascii;
    class       volScalarField;
    location    "518";
    object      nut;
}
// * * * * * * * * * * * * * * * * * * * * * * * * * * * * * * * * * * * * * //

dimensions      [0 2 -1 0 0 0 0];


internalField   nonuniform List<scalar> 
114570
(
8.131803181818902e-14
9.677300814689763e-14
6.101352453950553e-14
1.485670779170606e-12
1.084795010428e-13
1.337015838907795e-12
3.942712625115638e-14
1.543086582347341e-12
3.838764972135912e-11
1.149664220465802e-13
1.175770539086033e-12
3.437096871767224e-11
2.20310258543523e-14
1.579519578685571e-12
3.971068965316719e-11
3.919426917481012e-10
1.161195079393439e-13
1.022671336946782e-12
2.978675453853894e-11
3.544861190223086e-10
1.064563427976104e-14
1.627121976130898e-12
4.078060076106062e-11
3.98781135958709e-10
2.370461093690656e-09
1.110977820130702e-13
8.756825602010676e-13
2.552167516368875e-11
3.081099214476721e-10
2.163828951953959e-09
1.232273715350264e-14
1.633309944385477e-12
4.235534283489398e-11
4.058597276652774e-10
2.377028750541838e-09
1.033674502621671e-08
1.000025891417893e-13
7.342419149904436e-13
2.154798722506275e-11
2.647614022732152e-10
1.886578883550526e-09
9.50919090792382e-09
2.285820663941865e-14
1.596501827471059e-12
4.273425052058546e-11
4.209105645854733e-10
2.399740298391795e-09
1.02494595615041e-08
3.546942292392395e-08
8.361624706190137e-14
5.995784945561361e-13
1.786886141394989e-11
2.244974098898643e-10
1.62587088909786e-09
8.314559419810657e-09
3.285664411965541e-08
3.633703303917116e-14
1.528938498798298e-12
4.168471277835709e-11
4.24327330334171e-10
2.48491320343168e-09
1.02831291153284e-08
3.49197052493606e-08
9.861605268097658e-08
6.393115155020957e-14
4.753648170306964e-13
1.45158631327633e-11
1.873447845889133e-10
1.384538925498318e-09
7.183294058881968e-09
2.88431421939803e-08
9.2053530743996e-08
4.959561399463354e-14
1.446977730170463e-12
3.96346084042161e-11
4.133350004267976e-10
2.502856369469009e-09
1.063564622676495e-08
3.489491311066289e-08
9.679866851585253e-08
2.249602836139851e-07
4.431471567468537e-14
3.673033114850491e-13
1.157210810081855e-11
1.536406316121523e-10
1.162646255600271e-09
6.140659167053082e-09
2.49993358483762e-08
8.142738204511499e-08
2.118870388545495e-07
5.977768197116378e-14
1.348840482832989e-12
3.714184170884519e-11
3.92393216472469e-10
2.434631358580674e-09
1.070535570084098e-08
3.604776966857908e-08
9.652907435616115e-08
2.207307736285251e-07
4.327329807921516e-07
2.938317826458841e-14
2.829372286374479e-13
9.154136190970933e-12
1.242538018196886e-10
9.623216988514564e-10
5.186697296186016e-09
2.146456325158375e-08
7.103500648142564e-08
1.896774334274611e-07
4.113758280583555e-07
6.530249232646991e-14
1.249647027418608e-12
3.423526355120714e-11
3.670313358661013e-10
2.307599974285065e-09
1.04005899591304e-08
3.626609666059484e-08
9.949386831455204e-08
2.198361940103312e-07
4.247409720779249e-07
7.297786705860693e-07
2.337439338573077e-14
2.299828067187732e-13
7.407452550448779e-12
1.004604031633607e-10
7.889868730938866e-10
4.330870279652833e-09
1.824411147733958e-08
6.142125568919313e-08
1.672804484092628e-07
3.733749482143345e-07
6.995410973586952e-07
6.671345313088841e-14
1.159132165951783e-12
3.136986424599022e-11
3.376613376373519e-10
2.154207647138994e-09
9.841909722203763e-09
3.521200743299247e-08
1.000296004470466e-07
2.257466165492843e-07
4.224657049414422e-07
7.165042263465013e-07
1.118227522955539e-06
2.889041875430772e-14
2.085794888329959e-13
6.463009739565863e-12
8.396044351424311e-11
6.509852803618549e-10
3.597777094689164e-09
1.537151145198123e-08
5.265151794748776e-08
1.462242012880128e-07
3.337244943400296e-07
6.432635376334164e-07
1.079272040969696e-06
6.630870902381219e-14
1.09105935613192e-12
2.883352632684858e-11
3.0876266107251e-10
1.977891895292431e-09
9.167440525728796e-09
3.329267310005259e-08
9.718624687314867e-08
2.267108046153418e-07
4.31909781007319e-07
7.116412486587624e-07
1.098075122534743e-06
1.599141613185353e-06
4.388393200225843e-14
1.98153436226646e-13
6.20808249006109e-12
7.64240142376353e-11
5.601965955788721e-10
3.026483682601681e-09
1.293928377856443e-08
4.482748982735035e-08
1.268362048991728e-07
2.956420392473738e-07
5.826255360218087e-07
1.003525771119194e-06
1.551918671884609e-06
6.750147199178528e-14
1.062337174196739e-12
2.697074623465157e-11
2.831772713330354e-10
1.8047976430976e-09
8.398383299322613e-09
3.096463467102609e-08
9.201188711274675e-08
2.206675851503193e-07
4.331369831539707e-07
7.244630109201638e-07
1.089088511674913e-06
1.570556574249674e-06
2.174616674724368e-06
6.097590604180137e-14
1.818703331464775e-13
5.813693968346182e-12
7.642560262064197e-11
5.292542736928675e-10
2.676313031920857e-09
1.109211064909873e-08
3.826479235942072e-08
1.093629255887838e-07
2.600164465869389e-07
5.231735781787411e-07
9.195459856360142e-07
1.456094002272993e-06
2.119596540513927e-06
7.378346821787685e-14
1.095846869454554e-12
2.616833871236184e-11
2.642546196175369e-10
1.65155634578947e-09
7.645630134000494e-09
2.832581766404183e-08
8.566771140468428e-08
2.096905680670068e-07
4.22481488230706e-07
7.254411996304286e-07
1.10459345182079e-06
1.555726298732056e-06
2.136174515376035e-06
2.848369454683705e-06
7.460084482616362e-14
1.681921797174136e-13
4.745487166992521e-12
7.266429473594743e-11
5.478399637736328e-10
2.614553053557269e-09
1.006168901901411e-08
3.341165197625277e-08
9.47420642494357e-08
2.274425098399312e-07
4.666334726489732e-07
8.357855563538696e-07
1.347105837111215e-06
2.003220451774715e-06
2.785912125354494e-06
8.919579696145024e-14
1.210138143189739e-12
2.694218632274125e-11
2.557277973731287e-10
1.537412392373415e-09
6.979988396353272e-09
2.574625193873777e-08
7.847540736565317e-08
1.960514244084777e-07
4.032977334389827e-07
7.088485691674489e-07
1.104518608633826e-06
1.572878191391647e-06
2.113686115364271e-06
2.798842250888175e-06
3.625809860673643e-06
8.004937387407989e-14
1.577380956494152e-13
3.653053777291108e-12
5.804555205135827e-11
5.278671644851235e-10
2.787491068147644e-09
1.012239429988329e-08
3.100139481601465e-08
8.415254284154132e-08
1.999697426065354e-07
4.142336127210193e-07
7.550553791928335e-07
1.236897585519126e-06
1.867721425757779e-06
2.64843816274481e-06
3.556091389367419e-06
1.182151019012513e-13
1.429531397720619e-12
2.969554945268184e-11
2.625588177344918e-10
1.483660683951517e-09
6.481014487803126e-09
2.34657612647297e-08
7.141152971263926e-08
1.804963723611834e-07
3.792072592757952e-07
6.794466523917444e-07
1.080620568164736e-06
1.570697891990657e-06
2.131191465248596e-06
2.766837629950257e-06
3.56422256679994e-06
4.514019608362862e-06
7.182896877824689e-14
1.434145600164789e-13
2.818355041868004e-12
4.260595688252689e-11
4.151397993405941e-10
2.71630173029682e-09
1.105119197606454e-08
3.190579801815551e-08
7.947774758512361e-08
1.80264634317168e-07
3.693862368108091e-07
6.795874119514315e-07
1.129659393799835e-06
1.729150738156381e-06
2.484821764699993e-06
3.39680346432732e-06
4.436973675102475e-06
1.660046013797833e-13
1.769585204221607e-12
3.496706022790331e-11
2.886269524687253e-10
1.51847162127976e-09
6.235668272329477e-09
2.174401803934915e-08
6.513579534921013e-08
1.650489946096894e-07
3.515353567996512e-07
6.423001182094768e-07
1.039120670908569e-06
1.537953025864416e-06
2.12560557576419e-06
2.783161741848156e-06
3.52083641657534e-06
4.439704345163154e-06
5.521764135813392e-06
5.081534659170108e-14
1.205857456890315e-13
1.938592502254429e-12
3.106391386085447e-11
2.937233779707434e-10
2.111679208278948e-09
1.087804044500453e-08
3.535194466481307e-08
8.284879593891235e-08
1.722742989473105e-07
3.3723440258998e-07
6.140216790541565e-07
1.028868007677674e-06
1.593461905404385e-06
2.315870758465592e-06
3.203241956097986e-06
4.254931948389183e-06
5.437023133453649e-06
2.353828567340815e-13
2.2297122765252e-12
4.305945460664642e-11
3.390881760870065e-10
1.663858910581893e-09
6.358045481238516e-09
2.085943174565406e-08
6.034320265026909e-08
1.511664025587333e-07
3.236949592011087e-07
5.994091355516084e-07
9.865696631195203e-07
1.482325765254534e-06
2.082220864099047e-06
2.772596233815924e-06
3.534192101438568e-06
4.383099342053621e-06
5.434416019532787e-06
6.659562444555521e-06
3.258634967371115e-14
9.072590861977084e-14
1.383344864607373e-12
1.934243839987388e-11
2.046958826447721e-10
1.449561545610958e-09
8.417380357925992e-09
3.51385224856327e-08
9.203788559537362e-08
1.800806006585481e-07
3.247199493786297e-07
5.669266835541125e-07
9.408388534103462e-07
1.465679050193713e-06
2.149789564654887e-06
3.001639763865631e-06
4.029328577991218e-06
5.231021023808408e-06
6.566393954825808e-06
3.222074056707533e-13
2.775251306274583e-12
5.383831843011327e-11
4.167775559895073e-10
1.948679105268177e-09
6.936362279860461e-09
2.117108448618629e-08
5.776297012159015e-08
1.403800410690499e-07
2.98307077020013e-07
5.55763834417578e-07
9.257259580081755e-07
1.411895898143009e-06
2.010121769894464e-06
2.716478730306339e-06
3.516760359441779e-06
4.391428092796262e-06
5.362823074517259e-06
6.559298597126032e-06
7.939811159821737e-06
2.511905432015234e-14
7.100395511452004e-14
1.196737805648141e-12
1.258776338021774e-11
1.183453294946818e-10
9.708159630459631e-10
5.654016801220619e-09
2.741043866870961e-08
9.231609302096994e-08
1.984508800988306e-07
3.383296964848181e-07
5.489299098593269e-07
8.774984773942241e-07
1.354434177110461e-06
1.993544226099256e-06
2.803049017535802e-06
3.792498074140705e-06
4.970993775292981e-06
6.334916438738762e-06
7.83705109758252e-06
3.946687533289038e-13
3.340353415892044e-12
6.633582923193214e-11
5.20181614438962e-10
2.387859717566914e-09
8.082563296940036e-09
2.294654103271191e-08
5.83045743655353e-08
1.342767341422747e-07
2.781726298218825e-07
5.153998826232012e-07
8.632647574085757e-07
1.330282574687485e-06
1.918976570420752e-06
2.625157968758663e-06
3.445479413424882e-06
4.36488759409337e-06
5.363776371603664e-06
6.471064476170007e-06
7.827233096592743e-06
9.376952954673295e-06
2.787019159094861e-14
6.941348500825026e-14
1.08907024988795e-12
1.092327400241294e-11
7.140897866829318e-11
5.273392845642569e-10
3.659517098806863e-09
1.828181314568943e-08
7.379738831082148e-08
2.003836170004558e-07
3.67750171856063e-07
5.684990903973108e-07
8.537905167921004e-07
1.274732737518012e-06
1.858461378150842e-06
2.616879676041946e-06
3.55904979972263e-06
4.696051437554631e-06
6.037799528584878e-06
7.578234410748567e-06
9.262940151915481e-06
3.970726091423602e-13
3.718594581932798e-12
7.892406846530343e-11
6.39643098339905e-10
2.970166107646498e-09
9.844609322528594e-09
2.650121285115807e-08
6.259580622759127e-08
1.347493984970143e-07
2.661984076129644e-07
4.827222562189903e-07
8.047936395078216e-07
1.245942268706986e-06
1.813397609426056e-06
2.509968989967071e-06
3.331721031160315e-06
4.275637946125845e-06
5.325485920572904e-06
6.461988000905863e-06
7.720876530359809e-06
9.253211490812135e-06
1.098767938831735e-05
4.569851150124655e-14
1.230104980383025e-13
1.200754883207746e-12
1.004169859675857e-11
6.11502038269167e-11
2.980938570038733e-10
1.887445338717095e-09
1.15389433621194e-08
4.994636456116857e-08
1.659168681566212e-07
3.7242452484972e-07
6.089684418098596e-07
8.785673465312466e-07
1.245563966291939e-06
1.763086035788673e-06
2.457595363562529e-06
3.34145906602777e-06
4.425185698220255e-06
5.721594565570596e-06
7.241097958984285e-06
8.974539876351297e-06
1.086019994613104e-05
2.892958269977445e-13
3.621925584330943e-12
8.699733611945391e-11
7.59148696141269e-10
3.637137716884271e-09
1.215347451428681e-08
3.190476918368388e-08
7.127448051475411e-08
1.42979441083123e-07
2.657198182531349e-07
4.623523607318768e-07
7.565422249151163e-07
1.166178901919519e-06
1.70374024636779e-06
2.376686656377291e-06
3.188584554194987e-06
4.135706779026005e-06
5.21504730102885e-06
6.408871069444464e-06
7.698797359671718e-06
9.127487154260527e-06
1.085453902099384e-05
1.279115890055621e-05
7.315501050432822e-14
4.068920877105869e-13
2.46963056287888e-12
1.110028729130423e-11
5.628106769784964e-11
2.509544043504201e-10
1.010007406336215e-09
5.721373287972998e-09
3.119941858616716e-08
1.16199358371581e-07
3.195725641564181e-07
6.163553961064247e-07
9.285135578326615e-07
1.274599953225607e-06
1.729051041716232e-06
2.347417005249466e-06
3.157824658923265e-06
4.174684911154297e-06
5.410614750745408e-06
6.880291760930077e-06
8.594235594526685e-06
1.053958019860339e-05
1.264741348920068e-05
1.391677202782269e-13
2.852483323779553e-12
8.438464539094777e-11
8.349139011921422e-10
4.295269141973147e-09
1.474550119806739e-08
3.881425467761791e-08
8.421859042747557e-08
1.599134816256029e-07
2.786537824041833e-07
4.594625330311265e-07
7.251387282550791e-07
1.099206432217953e-06
1.599137257037962e-06
2.237717979229082e-06
3.023217192382672e-06
3.960072095344388e-06
5.044633149103075e-06
6.273562087096362e-06
7.627319085953986e-06
9.08910262912141e-06
1.070850776399445e-05
1.265105552094131e-05
1.480928214419454e-05
1.038169895561139e-13
1.125367587707312e-12
9.138221883387536e-12
2.293045888253482e-11
6.204618614850172e-11
2.309764021044769e-10
8.350766697955189e-10
2.93338496844767e-09
1.511590579854592e-08
7.329059037470384e-08
2.339300069096884e-07
5.452083802876005e-07
9.369945298754272e-07
1.331421559217849e-06
1.761884568334396e-06
2.309767446434521e-06
3.034078243849933e-06
3.966813503714734e-06
5.125834152986246e-06
6.52649748270678e-06
8.185432772355535e-06
1.011282932697408e-05
1.229157736159781e-05
1.464589639493005e-05
5.448284243982798e-14
1.836863107013266e-12
6.691818483404823e-11
8.087817160855654e-10
4.703801534085722e-09
1.7232311045806e-08
4.629508515791804e-08
1.002031122418576e-07
1.847149436404882e-07
3.061524980866504e-07
4.769189114424161e-07
7.17906173328434e-07
1.053888196527783e-06
1.509934061798782e-06
2.104186695474412e-06
2.850274369410667e-06
3.757508995562796e-06
4.831229218600105e-06
6.067718330015267e-06
7.462943676202965e-06
8.995271630921423e-06
1.065017265528841e-05
1.248415638507227e-05
1.466536226518824e-05
1.706691894263601e-05
1.359744873683336e-13
2.28806130126562e-12
2.642601168666665e-11
8.517985764262356e-11
1.278563816983166e-10
2.540537104212071e-10
7.684196278417857e-10
2.382727101789822e-09
7.532798078830099e-09
3.538217331233517e-08
1.515544437084087e-07
4.173543848051816e-07
8.479357535767593e-07
1.337929427367579e-06
1.822403895502251e-06
2.345942994872777e-06
2.994276285245746e-06
3.831072277200143e-06
4.894202407647522e-06
6.206354285357201e-06
7.786319738451688e-06
9.652777337506629e-06
1.181512382973379e-05
1.4251586243864e-05
1.688002692156365e-05
2.226705744793886e-14
1.473487748353775e-12
4.40821675332071e-11
6.417156191508431e-10
4.549245340808895e-09
1.871320002534157e-08
5.314699827333207e-08
1.167147175619849e-07
2.143385334412878e-07
3.460834239618511e-07
5.160586493735864e-07
7.389356389787926e-07
1.039962398394917e-06
1.447438424190826e-06
1.988732636401834e-06
2.683075367266538e-06
3.545168697207876e-06
4.58554187516423e-06
5.810471265079467e-06
7.216018470298907e-06
8.79705611834903e-06
1.052958368962052e-05
1.2401905806312e-05
1.447747846942681e-05
1.692304036121443e-05
1.958948557702375e-05
1.726575034861298e-13
3.871506830087982e-12
5.472137142334908e-11
2.470107624801167e-10
4.745852430423783e-10
5.215839822972253e-10
8.443746879970741e-10
2.192048915246422e-09
6.018256451223446e-09
1.741699447369242e-08
7.429326091234672e-08
2.806197273608811e-07
6.760452120480651e-07
1.230676071128745e-06
1.822785199015983e-06
2.406597048517269e-06
3.033179473572667e-06
3.790634365680155e-06
4.748375777543249e-06
5.951936939388323e-06
7.430243835864692e-06
9.206318408215541e-06
1.130100408307988e-05
1.372244721738866e-05
1.644393374733271e-05
1.937268214706787e-05
4.048218804400889e-14
2.17869188673021e-12
3.659121421937194e-11
4.235417587911121e-10
3.620946131096941e-09
1.806096224357477e-08
5.695540437352092e-08
1.310064903404029e-07
2.436458236441936e-07
3.927169035280381e-07
5.730851616673125e-07
7.898842852999088e-07
1.063082374691435e-06
1.424051800330773e-06
1.905325480825539e-06
2.536749320689647e-06
3.338823135607235e-06
4.327523657867081e-06
5.514812506311447e-06
6.907959448868563e-06
8.502617659516953e-06
1.029210143019348e-05
1.224976801269984e-05
1.436709580163007e-05
1.67145444473736e-05
1.945003116254675e-05
2.240607043388991e-05
2.18295414515742e-13
5.886406279514039e-12
9.347744040105382e-11
5.121375038492684e-10
1.376907089926773e-09
1.9311086014496e-09
1.725587763409941e-09
2.411007950783918e-09
5.534794079876407e-09
1.370896603897432e-08
3.66988917708812e-08
1.418137764275675e-07
4.735242244630809e-07
1.015337313293899e-06
1.69583608493465e-06
2.395931071699537e-06
3.090044945012628e-06
3.831301600197304e-06
4.708716324480979e-06
5.798259622997632e-06
7.154662389543789e-06
8.814534001456759e-06
1.080602375041749e-05
1.315228216787907e-05
1.585978561578266e-05
1.888736630452461e-05
2.215223943095021e-05
2.170000582016382e-13
3.346560046629303e-12
5.54769948942663e-11
3.523525549481922e-10
2.405237438762966e-09
1.450442993370607e-08
5.485594496815875e-08
1.382567781004365e-07
2.677321843276092e-07
4.374464407665356e-07
6.389743296872828e-07
8.651646890565175e-07
1.125493071146241e-06
1.447375350317269e-06
1.869277426408323e-06
2.42816707343802e-06
3.156329166649965e-06
4.075718624560537e-06
5.203866076104523e-06
6.554446543346286e-06
8.135779830639651e-06
9.942858393712575e-06
1.196688180014184e-05
1.417824641458678e-05
1.65716545283919e-05
1.922099619532364e-05
2.227690958955636e-05
2.555087018655593e-05
2.766674503654197e-13
8.285110764419079e-12
1.429108185919848e-10
8.752908335703846e-10
2.852831463622342e-09
5.588050530843664e-09
6.350489185169317e-09
4.899055101437349e-09
6.107285222357236e-09
1.259395797981538e-08
2.850598881219017e-08
7.12186404677773e-08
2.494957881564428e-07
7.398851057974946e-07
1.438136284441767e-06
2.246428555899198e-06
3.062846873079648e-06
3.880031962223447e-06
4.749639829583029e-06
5.760513609643578e-06
6.995646224047647e-06
8.520196816309249e-06
1.037987750542812e-05
1.260893020939308e-05
1.523298404376589e-05
1.824139751011665e-05
2.161038521549703e-05
2.525425116999022e-05
6.701724502299814e-13
4.765168106751465e-12
8.520335055666114e-11
5.359247645356425e-10
2.011174011452482e-09
9.802343660252236e-09
4.480199758001103e-08
1.329828259315122e-07
2.787911706701119e-07
4.727523488269017e-07
7.009788539756867e-07
9.520196921490438e-07
1.219847321456472e-06
1.520602354632209e-06
1.890555560806187e-06
2.375801952038949e-06
3.017728141185094e-06
3.851004165394963e-06
4.899340295732047e-06
6.182217143713274e-06
7.715361227983953e-06
9.508166389912325e-06
1.155460350475788e-05
1.384307336123785e-05
1.63406103055108e-05
1.904121190457162e-05
2.202865937176386e-05
2.543929922344338e-05
2.906032442310701e-05
3.53776085553227e-13
1.086749262905046e-11
2.01749322684206e-10
1.338344918573621e-09
4.867365159133005e-09
1.151200387519963e-08
1.81767131685495e-08
1.778907919243369e-08
1.231612165981036e-08
1.396976322932697e-08
2.61089020411783e-08
5.467128783792032e-08
1.2870697216226e-07
4.093021141890179e-07
1.085832383419722e-06
1.946666567840921e-06
2.886605809609744e-06
3.83035099380018e-06
4.785358951421961e-06
5.799442861845049e-06
6.960452111049934e-06
8.358516018359661e-06
1.007007852009653e-05
1.215123951063871e-05
1.464329532861485e-05
1.755309167495716e-05
2.089678298279417e-05
2.465273129143781e-05
2.871580548619545e-05
1.369226872736292e-12
6.375583252701265e-12
1.179891077690481e-10
8.234325405852558e-10
3.06844197514101e-09
8.305222682092268e-09
3.130717765284608e-08
1.11054105752178e-07
2.680964285543972e-07
4.874519442415182e-07
7.484674780983788e-07
1.032907891697109e-06
1.329271529351581e-06
1.634744935645481e-06
1.973726946560045e-06
2.392420270654729e-06
2.944904927452636e-06
3.676899908855995e-06
4.625492533554525e-06
5.816619733013991e-06
7.272231251668794e-06
9.010473174672469e-06
1.104175756226326e-05
1.335851403224991e-05
1.594549177639493e-05
1.876280892979729e-05
2.180803221330192e-05
2.51748632255599e-05
2.897396446780921e-05
3.297394314255856e-05
4.523563505713458e-13
1.344709402460614e-11
2.649524355436791e-10
1.88897485277454e-09
7.42293786323625e-09
1.947281298564183e-08
3.674863354204756e-08
4.94825617192572e-08
4.352757430982833e-08
2.787346558068077e-08
2.913924671375662e-08
4.976185536307386e-08
9.780066191195623e-08
2.188506752027425e-07
6.320333262656208e-07
1.515290149653877e-06
2.543570057558032e-06
3.621906881329574e-06
4.706801913753775e-06
5.816613186477395e-06
6.994184507684931e-06
8.325743048982081e-06
9.908356896372003e-06
1.183016810353828e-05
1.415866414093969e-05
1.691518528421001e-05
2.014403323469365e-05
2.387199222093677e-05
2.805362130840685e-05
3.257825240593565e-05
2.035006884703539e-12
8.098816129129377e-12
1.496930083110771e-10
1.136340916899915e-09
4.699402913756406e-09
1.269097436876276e-08
2.720904980648768e-08
8.134421614489215e-08
2.288252717506007e-07
4.690686735635637e-07
7.664919765908438e-07
1.093442863966847e-06
1.430700798674952e-06
1.768420276536526e-06
2.108337986460938e-06
2.484438290504605e-06
2.953856982563878e-06
3.578949202690362e-06
4.409678965224469e-06
5.485731932056169e-06
6.835949653893706e-06
8.485379902798596e-06
1.045494359108034e-05
1.27558764052873e-05
1.537832711198511e-05
1.829991724402656e-05
2.147694527109989e-05
2.491027867135132e-05
2.869693321695944e-05
3.292001691245851e-05
3.733444198482897e-05
5.739732185066319e-13
1.567990748001411e-11
3.277020675274142e-10
2.479732003782074e-09
1.043951291227689e-08
2.936334367937614e-08
6.065046893852641e-08
9.599435011992325e-08
1.14650895698239e-07
9.40371360393101e-08
5.727404130242766e-08
5.581984294526374e-08
8.810776609337212e-08
1.650958906030594e-07
3.527708960067023e-07
9.264399858112896e-07
2.031365159934296e-06
3.232492194847011e-06
4.459411217829434e-06
5.702326493402895e-06
6.98645075597228e-06
8.349893367768907e-06
9.876763538612031e-06
1.167063584388756e-05
1.383126213199876e-05
1.640494180814412e-05
1.945875013566723e-05
2.305972958146093e-05
2.721024063141344e-05
3.185814319374251e-05
3.688790197617394e-05
2.54535896113033e-12
9.801823576004728e-12
1.788057700848439e-10
1.429410699279676e-09
6.406826494474762e-09
1.916675449401031e-08
4.129504842112265e-08
7.330063437068929e-08
1.759690847668062e-07
4.076325179298242e-07
7.38374419816835e-07
1.114462426508269e-06
1.505178859922842e-06
1.892195069078214e-06
2.268073766356626e-06
2.640160822702855e-06
3.053366710140319e-06
3.576794137848199e-06
4.28134209537541e-06
5.221173362070737e-06
6.438951981877238e-06
7.967335357643068e-06
9.835175922179935e-06
1.206645292045433e-05
1.467281735826848e-05
1.763916153682524e-05
2.093775818772987e-05
2.452069892161138e-05
2.838667978901374e-05
3.263411495965077e-05
3.731853734405553e-05
4.217415973642109e-05
7.134611431416621e-13
1.729554982405845e-11
3.813827001063368e-10
3.064421690523042e-09
1.36463339259359e-08
4.073756653972074e-08
8.889656210954095e-08
1.514443027941291e-07
2.089130369056691e-07
2.291277628695465e-07
1.808653930293659e-07
1.075530589732079e-07
9.902344198225366e-08
1.4670414053581e-07
2.655060992347069e-07
5.417141933013434e-07
1.299489653278686e-06
2.637207601365828e-06
4.018409701430078e-06
5.407881359598615e-06
6.829099188009519e-06
8.309894212635517e-06
9.885499902513323e-06
1.163745032837868e-05
1.367525291429364e-05
1.607438379530224e-05
1.892699783103087e-05
2.2336370501295e-05
2.6348718187843e-05
3.096232496458843e-05
3.611842122881825e-05
4.16764476664794e-05
2.868294053764487e-12
1.145692332825403e-11
2.080537301196642e-10
1.68722316394798e-09
7.871140486669577e-09
2.532294270772901e-08
6.023869497670307e-08
1.086319622319204e-07
1.645410247566249e-07
3.263528115067717e-07
6.505586976880299e-07
1.074692502048699e-06
1.528813855591095e-06
1.981557395151243e-06
2.416158935752649e-06
2.827889718707224e-06
3.230776032872255e-06
3.682137300455094e-06
4.264147880502525e-06
5.056519803641264e-06
6.117644044112856e-06
7.493786615839852e-06
9.222587203829442e-06
1.133743214784397e-05
1.386549173969305e-05
1.681649193538988e-05
2.017138531050866e-05
2.389563378663567e-05
2.793289602577117e-05
3.227861431861196e-05
3.702742735277054e-05
4.220242982531179e-05
4.753405985617531e-05
8.629374366839749e-13
1.801529482052601e-11
4.191722432345828e-10
3.56249032065344e-09
1.677944266641956e-08
5.248028977230066e-08
1.19708859509756e-07
2.124455499713893e-07
3.116870165755588e-07
3.891380534212336e-07
4.035163374302132e-07
3.137151784928534e-07
1.861652076741748e-07
1.644251790992948e-07
2.323982089122607e-07
4.091426702693223e-07
7.957518373031031e-07
1.757095844036098e-06
3.336564079437654e-06
4.907860445046167e-06
6.477915111646694e-06
8.100942586684165e-06
9.804639491868515e-06
1.162318394739275e-05
1.363567146355471e-05
1.592419397540429e-05
1.859780259213577e-05
2.179411455471726e-05
2.560159644012639e-05
3.006827296266414e-05
3.518784963802521e-05
4.0865377491052e-05
4.699090954564668e-05
3.006194866619409e-12
1.257143297131077e-11
2.392356806197315e-10
1.944666183718721e-09
9.019961850219953e-09
2.95888208405175e-08
7.534437649415724e-08
1.499062799832335e-07
2.34460559334165e-07
3.138597002489254e-07
5.364495423384179e-07
9.565273985174011e-07
1.475392996374346e-06
2.007299386362333e-06
2.521365884375282e-06
3.002400192965736e-06
3.448535415371996e-06
3.881700692432223e-06
4.373307504505469e-06
5.019789350093872e-06
5.90996248539194e-06
7.106584237227733e-06
8.660425711126198e-06
1.061555095186613e-05
1.301054559444443e-05
1.587425520840696e-05
1.921577062294854e-05
2.301030651184064e-05
2.721191022005616e-05
3.175503302539759e-05
3.662894707008476e-05
4.191154179286936e-05
4.760925561315466e-05
5.346750386028301e-05
9.994481865839454e-13
1.780647140233282e-11
4.34263927553914e-10
3.909921001015609e-09
1.94052051923709e-08
6.357945887479617e-08
1.499525761361347e-07
2.749940416989478e-07
4.173991162609253e-07
5.505340316846511e-07
6.419754069374349e-07
6.426410534410576e-07
4.990252858064396e-07
3.002066303332051e-07
2.584098321131478e-07
3.532633282660833e-07
6.060038460142501e-07
1.123346927135983e-06
2.30487524587642e-06
4.134366408848137e-06
5.909149607729077e-06
7.682092247399197e-06
9.533630868062909e-06
1.149135324759303e-05
1.358868634813784e-05
1.587730470555905e-05
1.845446892805089e-05
2.147326613562163e-05
2.50620945276644e-05
2.931644447473022e-05
3.428493643535876e-05
3.991624622318544e-05
4.615421545453756e-05
5.289879000027392e-05
3.004559013280044e-12
1.299018492930366e-11
2.60339700061697e-10
2.220771122730699e-09
1.015908304755301e-08
3.205720826099229e-08
8.192068754672643e-08
1.758365671322962e-07
3.047084195065311e-07
4.283291064180476e-07
5.249256925969494e-07
8.050804591486017e-07
1.322784682991304e-06
1.937969132327916e-06
2.548504471956707e-06
3.12440393582854e-06
3.65172539397749e-06
4.131612752175027e-06
4.595340222342726e-06
5.130325827108383e-06
5.848537765748341e-06
6.848244234090452e-06
8.196841464346921e-06
9.950805181533264e-06
1.216237064564544e-05
1.487458314850732e-05
1.811960638422463e-05
2.190426801820555e-05
2.619340231672134e-05
3.092787408000833e-05
3.603044312622426e-05
4.147501279948162e-05
4.732482773937347e-05
5.358260776837551e-05
5.999972543981336e-05
1.094992573377829e-12
1.655909296729495e-11
4.259308735395764e-10
4.044666239954931e-09
2.118747286090744e-08
7.254920528760441e-08
1.772075687051969e-07
3.333983044630487e-07
5.206105777439773e-07
7.086091837917329e-07
8.690451520901245e-07
9.677775842721948e-07
9.477672179994558e-07
7.40420406283573e-07
4.559623852978948e-07
3.879215886007695e-07
5.178806231867606e-07
8.648736925285682e-07
1.531760664672111e-06
2.948713323744963e-06
5.036974610085869e-06
7.032555156469751e-06
9.035187639601039e-06
1.114645111695311e-05
1.339391184290213e-05
1.579288619716765e-05
1.839632509889214e-05
2.133435000317164e-05
2.475449991056806e-05
2.8793205899857e-05
3.355052548194059e-05
3.902441277308782e-05
4.521066539416056e-05
5.206866536454896e-05
5.942836502885829e-05
2.877881594401189e-12
1.280294467935747e-11
2.677413289690383e-10
2.404729557243706e-09
1.14212675533593e-08
3.467216734064369e-08
8.250605301566977e-08
1.780107191985617e-07
3.386355166775588e-07
5.295740884571776e-07
6.89627700874611e-07
7.950977054797308e-07
1.128901593164803e-06
1.746449416984991e-06
2.460615547609282e-06
3.151965427237397e-06
3.791447994674805e-06
4.365870315616244e-06
4.879594444177195e-06
5.374944417298851e-06
5.95751442930763e-06
6.756179402858397e-06
7.879122692357956e-06
9.398790861884931e-06
1.137883361214141e-05
1.388072086067386e-05
1.695393097284771e-05
2.06329498186093e-05
2.491806715580744e-05
2.976130637707093e-05
3.508697486253787e-05
4.079830617905894e-05
4.685692881263308e-05
5.330899510021159e-05
6.014322860284754e-05
6.716869667009031e-05
1.11479401115567e-12
1.439316409321534e-11
3.920330203285893e-10
3.9601619957741e-09
2.18181453972838e-08
7.832813508618677e-08
1.982559121705899e-07
3.83944286705568e-07
6.137323981530848e-07
8.582086916416445e-07
1.084612463164762e-06
1.265466590275315e-06
1.365463675462761e-06
1.31890785967513e-06
1.039898332932154e-06
6.587181352709128e-07
5.599127200598177e-07
7.343542813264534e-07
1.193066718486611e-06
2.02776297072662e-06
3.695076488330397e-06
6.052403790368995e-06
8.290535698483796e-06
1.055445165822433e-05
1.296146569446956e-05
1.552697375024158e-05
1.826708017241773e-05
2.125290047007348e-05
2.461233567508882e-05
2.849907492211418e-05
3.305396098860039e-05
3.832242975220225e-05
4.435352741761536e-05
5.116797588052134e-05
5.863526260375672e-05