/*--------------------------------*- C++ -*----------------------------------*\
| =========                 |                                                 |
| \\      /  F ield         | OpenFOAM: The Open Source CFD Toolbox           |
|  \\    /   O peration     | Version:  2006                                  |
|   \\  /    A nd           | Website:  www.openfoam.com                      |
|    \\/     M anipulation  |                                                 |
\*---------------------------------------------------------------------------*/
FoamFile
{
    version     2.0;
    format      ascii;
    class       volVectorField;
    location    "518";
    object      wallShearStress;
}
// * * * * * * * * * * * * * * * * * * * * * * * * * * * * * * * * * * * * * //

dimensions      [0 2 -2 0 0 0 0];


internalField   uniform (0 0 0);

boundaryField
{
    airfoil
    {
        type            calculated;
        value           nonuniform List<vector> 
570
(
(6.968324855083554e-05 2.280176123921096e-05 -3.254994366949801e-37)
(7.486773469361405e-05 2.842202012393092e-05 -5.894527874659236e-26)
(7.831091931079355e-05 3.433605767153887e-05 -3.862289421808152e-21)
(7.868722402841873e-05 3.971330931064546e-05 -5.888741357091603e-26)
(7.620059409850732e-05 4.43038043138701e-05 5.891326334630652e-26)
(7.067137553866767e-05 4.760343245964456e-05 -7.720723580570434e-21)
(6.215518317256325e-05 4.911028973930975e-05 -7.725528494673718e-21)
(5.088089192452027e-05 4.823129969709365e-05 -1.180415195817289e-25)
(3.75513956302862e-05 4.447314264749805e-05 1.183577563190603e-25)
(2.365308578736657e-05 3.789670830676435e-05 -1.556566226139309e-20)
(1.149686597324271e-05 3.023338603210312e-05 -3.911781707227558e-21)
(2.326758943944406e-06 2.540534199529688e-05 9.83796543427749e-22)
(-6.742907009964769e-06 2.632772780052183e-05 1.505722532487134e-25)
(-1.982142820075631e-05 3.008065335754964e-05 -1.201150093174444e-25)
(-3.621088725010219e-05 3.225860691228344e-05 2.618746570130218e-41)
(-5.244114590658648e-05 3.156287837152631e-05 1.186504883165247e-25)
(-6.881157732058162e-05 3.131727953029979e-05 3.86162883561284e-21)
(-7.822504469312609e-05 3.510353287059064e-05 -5.843084295843606e-26)
(-6.726306568602602e-05 3.435764524710051e-05 3.820094871759183e-21)
(-5.231129079729109e-05 2.950752135973653e-05 7.645428405359141e-21)
(-4.459116844331932e-05 2.818540109113141e-05 -7.646596965538291e-21)
(-4.476835149415465e-05 3.136938259985146e-05 -5.836153557926321e-26)
(-5.393178045526153e-05 4.172461718779512e-05 3.445973790828895e-28)
(-6.340180196655549e-05 5.400503634373166e-05 -7.65535764965559e-21)
(-6.977140461297868e-05 6.53372592487776e-05 -7.655639604757288e-21)
(-7.343023595461889e-05 7.556238986591493e-05 -5.841648627315737e-26)
(-7.600098536610116e-05 8.596893640406613e-05 7.657457745966859e-21)
(-7.886555933533448e-05 9.818518028924069e-05 -8.466802266878549e-39)
(-8.278164605522347e-05 0.0001136277148468428 7.668878259244434e-21)
(-8.813105705827128e-05 0.0001338271257667203 7.68113430007004e-21)
(-9.435804837287967e-05 0.0001591551033422706 0)
(-0.0001004620358107991 0.0001892844112537211 -3.860051949456887e-21)
(-0.0001049996419163632 0.0002225285753210507 -5.899524428679662e-26)
(-0.0001066749474993113 0.0002568445179843615 3.886046061091312e-21)
(-0.0001041276331612858 0.0002883284215723229 -3.899189347999458e-21)
(-9.660313543999151e-05 0.0003129099679717624 -5.97546690854552e-26)
(-8.394802272544445e-05 0.000325579247320723 5.975173231241622e-26)
(-6.710314212535705e-05 0.0003223216258289216 3.92877194518526e-21)
(-4.776307586287507e-05 0.0002993263868559237 -2.999221787204801e-26)
(-2.800663887118211e-05 0.0002505508059131568 1.968417010761044e-21)
(-1.10645127936049e-05 0.0001709809619744938 1.969745962601121e-21)
(-1.623006741137567e-06 9.245473935747144e-05 -9.411113454365404e-28)
(1.564727603247411e-06 5.195224958452027e-05 4.934791947899467e-22)
(2.332047897813474e-06 3.035779097881952e-05 -7.51990282756637e-27)
(1.447383238303119e-06 1.179155357062981e-05 -1.963097313928798e-21)
(2.533411958249295e-08 2.596190922787642e-07 4.591774807899561e-41)
(-8.346913315566724e-07 -3.717708426060784e-06 -3.908931239527338e-21)
(5.845472831814305e-07 2.096876132055861e-06 3.903331858231672e-21)
(6.104003147668997e-06 1.871927525667071e-05 3.900533101201495e-21)
(1.646114100889083e-05 4.349479716798892e-05 -5.950035091719946e-26)
(3.116473816919443e-05 7.196597416366809e-05 5.949821685528693e-26)
(4.84216704017269e-05 9.88199571553506e-05 -3.897809982468877e-21)
(6.449552038775299e-05 0.0001173466145693812 1.836709923159824e-40)
(7.363642720541057e-05 0.0001202600980116923 -3.673419846319648e-40)
(7.321286203760607e-05 0.0001078522021883724 -7.758843994221921e-21)
(6.971215578189473e-05 9.292655772946912e-05 1.182554398934741e-25)
(7.27233506128694e-05 8.792797189477291e-05 -7.741526860333454e-21)
(8.284953091093038e-05 9.104318736341045e-05 5.889103557440508e-26)
(9.524549951125889e-05 9.521488934513951e-05 -5.888888683990266e-26)
(0.000120977275071628 0.000109933901000364 5.844403788083273e-26)
(0.0001719070688059202 0.0001419025161101386 -7.633364284249569e-21)
(0.0002469000402484552 0.0001848924344048377 -7.499306374789987e-21)
(0.0002078487524061742 0.0001410629124201103 4.998366599183723e-26)
(-5.41560617506699e-05 -3.25430060793745e-05 -6.414044391515753e-21)
(-0.0004335090282361696 -0.0002372804105877869 0)
(-0.0007965270815364626 -0.000389233093471713 3.565305259331814e-26)
(-0.001098304059936052 -0.0004744636397647792 -2.205701781284394e-21)
(-0.001340861294601316 -0.0005059534338861826 -4.049097869900129e-21)
(-0.001534352269258034 -0.0004979013601041778 1.917842898544635e-21)
(-0.001686833077683928 -0.0004608729589309308 1.879609496072907e-21)
(-0.001801805754439605 -0.0004021753286427478 1.904628391610946e-21)
(-0.001878833357751462 -0.0003273210043290013 9.938064561331322e-22)
(-0.00191145707735885 -0.0002409037709271148 1.061907314736981e-21)
(-0.001888348061110442 -0.000148074076109862 -4.61448112650513e-27)
(-0.0018115641161715 -5.63663930959433e-05 5.252069148772039e-27)
(-0.001721464947536496 2.7696846066818e-05 4.983297648029168e-27)
(-0.001672453146294287 0.0001059813289605344 7.740272110816312e-22)
(-0.001648643014940783 0.0001828359841464519 -4.591774807899561e-41)
(-0.001614624288256451 0.0002565839979413372 -1.885377936909011e-21)
(-0.001558582840363257 0.0003236264582787444 2.065561970035056e-21)
(-0.001480002996459254 0.0003808440242414182 5.864916216425545e-27)
(-0.001379970849121886 0.0004253477730567587 -9.723062971658617e-21)
(-0.001260003036209361 0.0004543945033277235 -7.689786532626201e-26)
(-0.001122000925595295 0.0004654380137696082 -2.094223241890912e-37)
(-0.0009683244236917579 0.0004562374732191437 0)
(-0.0008015558862165452 0.0004248339022114142 6.142314164328744e-21)
(-0.0006244897603621725 0.000369562684393123 7.483318323482932e-27)
(-0.0004401125969814495 0.0002890932160061081 -1.312542965738371e-20)
(-0.0002514604491821862 0.0001823757444533669 1.337954911970812e-20)
(-6.223145952679778e-05 4.915003702010369e-05 0)
(0.0001238009737254258 -0.0001103294463524325 -5.05588485928394e-42)
(0.0003039960586813706 -0.000296367283181634 -1.000359527536884e-25)
(0.0004749060013284274 -0.0005082131212064224 1.293116676581583e-20)
(0.0006329098593576898 -0.0007444060358167012 -1.239190978879932e-20)
(0.0007749698928188751 -0.001003511946281287 1.166174397863038e-20)
(0.0008980401152475156 -0.001283502745322708 -1.07328669858472e-20)
(0.0009993193635783814 -0.001581977003333754 -1.469367938527859e-39)
(0.001076251948829992 -0.001896118217792244 8.257306647749012e-21)
(0.001126656779018582 -0.002222852272675692 -4.444158887781018e-26)
(0.001148877814610424 -0.002559181610651193 -4.940944376878931e-21)
(0.001141747877901339 -0.002902335436354252 1.484204028954002e-21)
(0.001105930664507657 -0.003254079493663579 -3.955224175030171e-22)
(0.001051259317262458 -0.003650419046962064 7.90830029847167e-22)
(0.0009903912528692839 -0.004170279411138096 -1.091237774688142e-26)
(0.0009049536205511429 -0.004810019948184779 -1.71516274297811e-21)
(0.0007613063621891951 -0.005450465645740515 -3.730817031418393e-41)
(0.000554526229760835 -0.006036997807012675 -1.598134599937063e-21)
(0.0002926530728977365 -0.006584426579812563 -1.37869823584055e-26)
(-1.96759570301822e-05 -0.007104287417621189 -7.503552559860461e-23)
(-0.0003801516698913759 -0.007603033105002184 -4.227571033173925e-21)
(-0.000787097422716359 -0.008077095889362534 -6.483475559262276e-21)
(-0.001237737180440188 -0.008516791917915302 7.259595971289205e-37)
(-0.001727436142198458 -0.008910094211811517 2.407430761710036e-42)
(-0.002250669407390722 -0.009250026894508741 -1.440721471453201e-25)
(-0.002800844317601201 -0.009530091752046173 1.969464562767686e-20)
(-0.003370054712988651 -0.009743044104731712 2.128135019706301e-20)
(-0.003948372372765761 -0.009880248415455824 3.361227900513704e-25)
(-0.004523808817755259 -0.009933422360850836 -1.136733314260292e-41)
(-0.005083007547393607 -0.009896075871306257 5.539946261891745e-37)
(-0.005610000077730241 -0.009760734147709577 -1.034429534504373e-24)
(-0.006083963626284328 -0.009516985194372711 8.422104614061135e-25)
(-0.006475980664060977 -0.009149687097762874 1.136775157375014e-19)
(-0.006732027628382388 -0.008620097954603483 1.763241526233431e-38)
(-0.006774365491026767 -0.007878835351957086 4.380508693152775e-25)
(-0.006643137497015247 -0.007153137416484481 -8.907277057771327e-27)
(-0.006662123991410592 -0.00679390084929978 -5.380924862182772e-20)
(-0.006824235911669714 -0.006596643904283966 -5.363944527993392e-20)
(-0.006918302124901527 -0.006350215706718801 -1.310676201166851e-36)
(-0.006972759822429368 -0.006087312628957615 -4.073798145093809e-25)
(-0.007012537873525443 -0.005831694161061443 -5.333857643306829e-20)
(-0.007041020171676919 -0.005585597217523938 -5.317401493578282e-20)
(-0.007055729849752505 -0.005346363052108985 5.298145177832506e-20)
(-0.007056858230781983 -0.005113721577383259 4.014024631776189e-25)
(-0.007045978828027757 -0.004888301937199096 4.016140799857239e-25)
(-0.007024712756187611 -0.004670697182921635 2.938735877055719e-39)
(-0.006993983698864511 -0.004460941005021672 -5.188935925767602e-20)
(-0.006955101405618734 -0.004259270165818201 7.864388074032965e-25)
(-0.006909255242966091 -0.004065813567225749 -5.117927798922993e-20)
(-0.006857584252952919 -0.003880596581139328 -3.890923660638952e-25)
(-0.006800909158343501 -0.003703445817138442 -5.038990768534925e-20)
(-0.006740048464767743 -0.003534201705114963 4.997226868962603e-20)
(-0.006675725400737105 -0.003372657000823894 -4.224432823267596e-36)
(-0.00660853465222605 -0.003218549111226307 2.455099570683824e-20)
(-0.00653908261116961 -0.003071637214858287 -2.432685057833186e-20)
(-0.006467879135123592 -0.002931649831420815 -3.659060578175348e-25)
(-0.006395302569819721 -0.002798275032784322 3.669389802333744e-27)
(-0.006321736065791167 -0.002671226318443615 3.685267432214208e-27)
(-0.006247562943812525 -0.002550237704387978 -2.340549191305399e-20)
(-0.006173030399809202 -0.002435007334302088 1.469367938527859e-39)
(-0.006098331542055996 -0.002325235366448257 -4.587863932516568e-20)
(-0.006023723513108602 -0.002220668864019977 -2.878819928256505e-26)
(-0.005949411569070293 -0.002121054118412192 2.247397499100138e-20)
(-0.005875501007021604 -0.00202612074926862 7.346839692639297e-40)
(-0.005802101373998412 -0.001935620208640187 2.187154176498719e-36)
(-0.005729409521033096 -0.001849350555834538 2.178418168220204e-20)
(-0.005657556737040256 -0.001767102425415323 3.271813987836533e-25)
(-0.005586697030827434 -0.001688687294736043 -2.133319446087098e-20)
(-0.005516566604227447 -0.001613806755572702 2.111096909733229e-20)
(-0.005448121221914138 -0.001542546452866689 2.088998316745163e-20)
(-0.005375399241796936 -0.001473260899402225 -7.346839692639297e-40)
(-0.005305956926498769 -0.001407915314253578 -1.3386136947837e-25)
(-0.005241856640246747 -0.001345611312408902 1.484977235534695e-25)
(-0.005172407829762109 -0.001282302998344071 1.464012063693333e-36)
(-0.005098127946704412 -0.001218360420208534 2.802596928649634e-45)
(-0.005022435988295383 -0.001154927779626962 1.241801473569853e-25)
(-0.00494526621123035 -0.00109211237461256 -2.362869094502286e-25)
(-0.00486630519801319 -0.001029945747231665 1.27672564552699e-25)
(-0.004785441858050032 -0.0009685076237089194 0)
(-0.00470272582341363 -0.0009079154565617097 -1.306082324863412e-20)
(-0.004618255378730047 -0.0008482963574861623 -1.233386991495027e-20)
(-0.004532090008451201 -0.0007897515833568155 -8.956140704645313e-26)
(-0.0044443723780904 -0.0007323914295117903 -2.19816743239667e-20)
(-0.004355048649582114 -0.0006762945976057341 -2.074216633918775e-20)
(-0.004264339011184549 -0.0006216033053475146 1.956743714229773e-20)
(-0.004172291116430631 -0.0005683781535001006 1.845459071655399e-20)
(-0.004078861517963338 -0.0005166763860123987 -1.740057741113864e-20)
(-0.003984103914724624 -0.0004666137171448097 6.257792806442423e-26)
(-0.003888048493639174 -0.0004182078208000808 1.545759505502909e-20)
(-0.003790543710862658 -0.0003715542459749427 9.183549615799121e-41)
(-0.003691707391175635 -0.0003266770660812848 1.293970582252487e-26)
(-0.00359124686123018 -0.000283653196254499 -5.134303493883941e-27)
(-0.003489144523724131 -0.0002425023369465265 -6.080332608722219e-21)
(-0.003384776882388054 -0.0002032662619884709 9.624359997357479e-38)
(-0.003278245219715618 -0.000166020695756877 2.161004018967731e-37)
(-0.003169536547117946 -0.0001308182176495262 -5.064527454361539e-21)
(-0.00305927234257877 -9.773423759082765e-05 -2.240417077722917e-27)
(-0.002946333193310859 -6.682846681351316e-05 -2.23815274942708e-21)
(-0.002832100560974679 -3.792957765786051e-05 4.205891543435843e-21)
(-0.002716169634239359 -1.257152721883501e-05 5.739718509874451e-42)
(-0.002589279682289552 1.617702858117432e-05 -9.274398209333247e-22)
(-0.002448520480998467 3.684576617827624e-05 -4.394041505234386e-38)
(-0.002318186330019531 5.491770670524025e-05 3.242860451615896e-21)
(-0.002192822362222726 6.740710031176985e-05 -1.134438673466385e-26)
(-0.002080437482085046 7.702156782986599e-05 -5.665046097201448e-21)
(-0.001977877258039371 8.435017020314471e-05 6.488672911504734e-27)
(-0.001883658236909731 8.982588562987399e-05 -4.967084027545384e-21)
(-0.001798537462282532 9.398146170865859e-05 -9.056193275307095e-27)
(-0.001720550327226707 9.706764628130798e-05 -1.749925642493258e-20)
(-0.001649952436396913 9.940063646290568e-05 0)
(-0.001585383052256084 0.0001010720127353843 7.256373198013781e-27)
(-0.001526683476170245 0.0001022769165948924 7.298150495025463e-21)
(-0.001473154332228496 0.0001031265015072982 -6.687975024329502e-27)
(-0.001424241733448114 0.000103700424554823 6.506369133742067e-21)
(-0.001379484126810907 0.0001040473567555198 -6.154296562994172e-21)
(-0.001338470876048941 0.0001042192227631088 5.658103710073681e-27)
(-0.001300755593050736 0.0001042648428334155 -1.105203507615712e-20)
(-0.001265909492015978 0.0001042048781286812 2.279816192122132e-37)
(-0.001233594398139927 0.0001040505023814545 9.970871569995972e-21)
(-0.001203542086554908 0.0001038107968385415 -4.448006258348459e-27)
(-0.001175444339019908 0.0001035089788065063 4.38579299921604e-27)
(-0.001149063831655258 0.0001031540634545964 8.620747615954259e-21)
(-0.001124137765290826 0.0001027408904486717 2.29588740394978e-41)
(-0.001100568502243922 0.0001022688897033066 0)
(-0.001078175259897902 0.0001017558215331368 -7.534177599456629e-21)
(-0.001056792409336626 0.000101202995334795 -1.444132303369128e-20)
(-0.001036320204078831 0.0001006136358289774 -6.92841513854404e-21)
(-0.0010166553001362 9.997173983537734e-05 6.655969685839203e-21)
(-0.0009977404496954744 9.929802875325399e-05 -6.401939342605858e-21)
(-0.0009794973979401021 9.859751544841022e-05 6.164919486742801e-21)
(-0.0009617876442279107 9.786467661389285e-05 3.097229867233497e-27)
(-0.0009446183965177124 9.709478613662616e-05 5.73705847701956e-21)
(-0.0009279861219683328 9.62944879567015e-05 0)
(-0.0009117626166346204 9.546917567783898e-05 -2.514233652750931e-27)
(-0.0008960275518129523 9.463193451893645e-05 4.95593261928158e-27)
(-0.0008806459618819974 9.377960183135282e-05 2.444465602609186e-27)
(-0.0008655729096684022 9.288525312067355e-05 4.891191914989504e-21)
(-0.0008507781513341293 9.196173945554729e-05 -2.074561354280661e-27)
(-0.0008363445642046072 9.102880634266711e-05 -4.624503279843288e-21)
(-0.0008221965507634353 9.008645216214508e-05 0)
(-0.0008083119485015959 8.912323230555979e-05 4.391018410645553e-21)
(-0.0007946976410577519 8.814421239128176e-05 0)
(-0.0007813339446270689 8.716010697783172e-05 -4.186507916938749e-21)
(-0.0007682020151416647 8.616532580579991e-05 4.093854072023855e-21)
(-0.000755310936302099 8.515988193504293e-05 4.007066892384142e-21)
(-0.0007426323746561608 8.414482789412492e-05 -7.851644153536771e-21)
(-0.0007301711748214328 8.312315397279611e-05 -1.287074478654247e-37)
(-0.0007179311390655933 8.209752070175142e-05 3.778479615635513e-21)
(-0.0007059147134946678 8.1070101172494e-05 3.711673772603302e-21)
(-0.0006941121842749657 8.004151060211831e-05 -3.64910137411696e-21)
(-0.0006825110007911522 7.901189950504385e-05 -3.590521810845368e-21)
(-0.0006711097669184785 7.798259793588543e-05 9.091912554988423e-28)
(-0.0006599092878578583 7.69549998059462e-05 2.29588740394978e-41)
(-0.0006489132748056842 7.593119105831197e-05 -6.872473255645201e-21)
(-0.0006381170953037725 7.491135230915044e-05 -1.58648011660423e-27)
(-0.0006275400278009524 7.389930509300261e-05 1.62751378071114e-27)
(-0.0006171596361432909 7.289323490630182e-05 3.309560382373747e-21)
(-0.0006070046820721116 7.189834106254287e-05 3.272661200401695e-21)
(-0.0005970452062918216 7.091108572715672e-05 1.619093418643886e-21)
(-0.0005872979941791222 6.993517610070603e-05 -1.603005747822108e-21)
(-0.0005777591287800952 6.897099725615144e-05 -3.028980120932924e-27)
(-0.0005684304602689527 6.801923626135122e-05 -1.574010065855369e-21)
(-0.0005593160294695472 6.707994770279676e-05 -1.560984600831104e-21)
(-0.0005504154755872073 6.615534992825641e-05 1.548887497673105e-21)
(-0.0005417348097944362 6.524755058335009e-05 1.495826560591715e-27)
(-0.0005332557167642277 6.435433903114348e-05 1.14794370197489e-41)
(-0.0005249966597543522 6.347914415597143e-05 -1.517683135752033e-21)
(-0.0005169490910852687 6.261793454073492e-05 1.508836812577277e-21)
(-0.0005091265605361778 6.177688387992076e-05 -1.500741515786847e-21)
(-0.0005015154598228932 6.095539786118391e-05 7.466735914380353e-22)
(-0.0004941175178239314 6.015132918758701e-05 -7.433120792729243e-22)
(-0.0004869567515218947 5.936785201766045e-05 1.382985098182742e-27)
(-0.0004800091913281709 5.860608560210592e-05 -1.43582772650356e-27)
(-0.0004732814133966768 5.78650396578166e-05 1.134144835736991e-38)
(-0.0004667774468775551 5.714283149862273e-05 -1.949782377804351e-38)
(-0.0004604933627943438 5.644613274270587e-05 -7.313833360533692e-22)
(-0.000454421638557355 5.576707863507439e-05 1.45985385499168e-21)
(-0.0004485796144059199 5.511278746882237e-05 0)
(-0.0004429366269557297 5.447963700994078e-05 2.869859254937225e-42)
(-0.0004375202504084705 5.386739582904753e-05 3.637252348896028e-22)
(-0.0004323057915660224 5.327976521244441e-05 1.358511458519975e-27)
(-0.0004272997754833825 5.27096792776593e-05 3.636913300698164e-22)
(-0.0004225005427250983 5.216634545372403e-05 3.639335194913651e-22)
(-0.0004178960743742484 5.16390687631998e-05 7.286540509410367e-22)
(-0.0004134920651903429 5.113812990534326e-05 3.649092221804612e-22)
(-0.0004092745515127599 5.065301139837362e-05 5.050952288689517e-39)
(-0.0004052492936785179 5.019302116144345e-05 -7.331926055880026e-22)
(-0.0004013969497520618 4.974839444680265e-05 1.374539587361159e-27)
(-0.0003977350720386006 4.932728582006657e-05 -5.627516318186109e-29)
(-0.0003942303320920507 4.892318583385206e-05 1.852737873216637e-22)
(-0.000390907924650863 4.853730514813378e-05 -1.861353522562394e-22)
(-0.0003877408770386365 4.817277602996437e-05 -4.496335897440358e-28)
(-0.0003847265157174573 4.782143734772401e-05 -1.88182257346777e-22)
(-0.0003818785041443593 4.749106573397514e-05 0)
(-0.0003791580147942869 4.717581174302132e-05 1.427216936703272e-27)
(-0.0003765922619284175 4.687504398671356e-05 -9.606258676052359e-23)
(-0.0003741604921110169 4.659235038420373e-05 9.684295795086641e-23)
(-0.0003717912182030714 4.631632561578929e-05 9.768817519639888e-23)
(-0.0003696355738516425 4.60629510975943e-05 -1.477374198444639e-27)
(-0.0003675665056499711 4.582057918874244e-05 1.992067807052923e-22)
(-0.0003656151515955314 4.559357300651291e-05 3.458971368564621e-28)
(-0.00036380406007936 4.538097407287093e-05 -1.018148895521683e-22)
(-0.0003621342707537929 4.518366851757526e-05 5.15213792338723e-23)
(-0.0003605717688387514 4.500201235577781e-05 5.218067083412922e-23)
(-0.0003591040667647258 4.483065510442754e-05 5.288368812958738e-23)
(-0.0003577546139437973 4.467192884836742e-05 5.363533205738582e-23)
(-0.0003565230427378403 4.452603475534897e-05 -5.443919236789494e-23)
(-0.00035539177173131 4.439459950442821e-05 1.713925839097013e-27)
(-0.0003543484876966634 4.427364798383342e-05 4.987658439652893e-39)
(-0.0003534089494640636 4.416385349242591e-05 -2.621928725306242e-45)
(-0.0003525768061283157 4.406605349202581e-05 -4.344025239406933e-44)
(-0.0003518516339252317 4.398058970763742e-05 1.784432296233504e-27)
(-0.0003512144994649078 4.390799821812143e-05 -1.871766155951627e-27)
(-0.0003506589802254828 4.384505946972945e-05 1.858725431170997e-27)
(-0.0003502022498152152 4.379333243016765e-05 -3.153357251779363e-23)
(-0.0003498447354385888 4.375296351907086e-05 -5.013810888092653e-29)
(-0.0003495878189734325 4.372418340585802e-05 3.299067528728204e-23)
(-0.000349433713178272 4.370767653966027e-05 2.038233676145351e-27)
(-0.0003493697830150798 4.370403168823126e-05 -4.8478456627641e-29)
(-0.0003493929872028604 4.371107983098097e-05 -1.778230337044054e-23)
(-0.0003495175522326914 4.373007143654484e-05 4.458777165100115e-27)
(-0.0003497464403063916 4.37614544439984e-05 1.877459500756644e-23)
(-0.0003500827433975873 4.380564642017783e-05 -1.932405443900233e-23)
(-0.0003505305849015987 4.386324995467529e-05 -2.453161556329637e-27)
(-0.0003510942149511744 4.393482978000942e-05 -1.0268639297069e-23)
(-0.0003517798301799857 4.402147950381881e-05 2.567694416231749e-27)
(-0.0003525793181782692 4.412415052764115e-05 -1.096120421264125e-23)
(-0.0003534942642723583 4.42411763166688e-05 1.13390551128274e-23)
(-0.0003545438316807005 4.4374532922952e-05 1.174555493035062e-23)
(-0.0003557365680811452 4.452521654821928e-05 -2.956221408182657e-27)
(-0.000357081173721169 4.469446000876751e-05 3.391241558565487e-29)
(-0.0003585872436476898 4.488348939716059e-05 6.57478141523403e-24)
(-0.000360264812537153 4.509362594896058e-05 -6.838145576276288e-24)
(-0.0003621249099222967 4.53263621558272e-05 -3.465903698013088e-27)
(-0.0003641796308988811 4.558323455070941e-05 3.701458508662676e-29)
(-0.0003664427255337205 4.586611206369848e-05 3.799430763284614e-27)
(-0.0003689272424709287 4.617663081997487e-05 8.111585387133897e-24)
(-0.0003716453024970187 4.651647853168721e-05 1.434929627468613e-42)
(-0.0003746424590062732 4.688670417160932e-05 -4.453204716093014e-24)
(-0.0003779530507140864 4.729576528928058e-05 9.119818426441773e-27)
(-0.0003815689009885725 4.774560246795648e-05 -4.913401259047715e-24)
(-0.0003855016777931497 4.823735338272778e-05 5.162882981208516e-24)
(-0.0003897814397716637 4.877460921184145e-05 -7.605127025583647e-41)
(-0.0003944401551998914 4.936121306693059e-05 1.145321988586506e-23)
(-0.0003995129795583262 5.000173642729088e-05 -6.044854997055144e-24)
(-0.0004050391119928814 5.070127907680999e-05 6.262361254446117e-27)
(-0.0004110618533526651 5.146562175237755e-05 -3.386333480396267e-24)
(-0.0004176304689884548 5.230141623225811e-05 -4.52002832652613e-41)
(-0.0004248009667046644 5.32162774792984e-05 -3.074336726851503e-40)
(-0.0004326354623088537 5.42188186695142e-05 -4.620473400448933e-40)
(-0.0004412061483226732 5.531908587247186e-05 -4.28543945190155e-24)
(-0.0004505963819485137 5.652897862949055e-05 -4.560548941711757e-24)
(-0.0004609023426019834 5.786220839091896e-05 0)
(-0.0004722370493266635 5.933536372728728e-05 -2.869859254937225e-42)
(-0.0004847338565431741 6.096819847913554e-05 -5.533477420687784e-24)
(-0.0004985523920703692 6.278478584224571e-05 2.957404009353618e-24)
(-0.0005138854253099344 6.481472693275201e-05 -3.661993738364329e-28)
(-0.0005309694070908807 6.709476665170043e-05 -1.341006842204075e-26)
(-0.0005500982603944528 6.967120680789904e-05 -3.60813352823142e-24)
(-0.0005716445382934136 7.260315074022064e-05 1.936614485310288e-24)
(-0.0005960920723856048 7.596760634317375e-05 0)
(-0.0006240807992035434 7.986693010491768e-05 -2.255920232890334e-24)
(-0.0006564959434166311 8.444391882796383e-05 3.866476883615589e-26)
(-0.0006945702053962623 8.990547274928316e-05 2.579196664008783e-24)
(-0.0007402254447817301 9.659234679188579e-05 2.874088842908531e-24)
(-0.000796158071320994 0.0001050941518920851 -4.691663052891958e-26)
(-0.0008686348369791573 0.0001169292735856572 3.340429368229277e-24)
(-0.000962658735456154 0.000135244362250193 -1.844783830777602e-24)
(-0.001144640264951392 0.0001837977052671012 -1.291436664721751e-41)
(-0.001195389979990296 0.0002889946873579095 -1.508627321671261e-25)
(-0.0007074713351849498 0.0002789017802005327 1.039692856922065e-23)
(-5.500524485290085e-05 -2.797628312106062e-06 9.721340861625826e-24)
(0.0001379810993965812 -0.0001681491479560514 0)
(5.659592067218402e-05 -0.0001062865455442275 -1.778385499462543e-23)
(3.815204391074563e-05 -0.0002907663686676482 4.492690853085959e-24)
(-5.844029603853039e-06 -0.0004633534575463758 3.181005879198503e-26)
(6.140171978840796e-05 -2.054437499458316e-05 3.938312586695264e-24)
(0.0002690161565889802 0.0004927071033250064 8.211622254890307e-24)
(0.0003576352208228315 0.0004436541631966587 -1.823203957472532e-23)
(0.0006370583233280793 0.0004360800655206176 -1.553548831391997e-25)
(0.0007601141629285282 0.0003880343728427132 -5.128936593753024e-26)
(-0.001065738992729639 -1.909907358948386e-05 7.181312391994632e-24)
(-0.002940799457676745 0.0001136820642769286 -7.712746747643793e-42)
(-0.003192098901644703 0.0003091894599919118 2.419210206531003e-24)
(-0.00281003176912516 0.0003260069877860776 1.973182671550143e-24)
(-0.002668859396600873 0.0003216352798128637 -9.715934087770119e-26)
(-0.002553270032569155 0.0003123140986185557 1.122349237955078e-26)
(-0.002467813969986704 0.0003039303820988344 7.695803167672798e-26)
(-0.002396802055177941 0.0002963387895936043 -2.582873329443503e-41)
(-0.002336652367957682 0.0002897103143869859 -5.029964523139553e-26)
(-0.002284308179758252 0.000283849351701346 6.939913817407161e-27)
(-0.002238028598818054 0.0002785978190378565 6.370921311737877e-27)
(-0.002196601563756236 0.0002738524556925254 3.480717637760004e-26)
(-0.002159247484858439 0.0002695341317283316 7.174648137343063e-43)
(-0.002125270011948131 0.0002655591125304865 1.086821371943858e-24)
(-0.002094053112763827 0.0002618605201177167 1.472869338767672e-24)
(-0.002065153634412458 0.0002584045114396745 -4.182878567936889e-25)
(-0.002038293321912681 0.0002551713316237379 1.316889677512935e-25)
(-0.002013263241269666 0.0002521413894145493 1.748820483477372e-42)
(-0.001989883212882543 0.000249291413768788 0)
(-0.001968009995302009 0.0002466102836483108 0)
(-0.001947464730268114 0.000244081575385974 -1.4941944608969e-24)
(-0.001928125421496413 0.0002416912255030614 -1.853392867832382e-24)
(-0.001909861026229598 0.000239424764608361 -2.136806150663874e-24)
(-0.001892578714757819 0.0002372736548755567 -2.009937700597978e-26)
(-0.001876196668870622 0.0002352278372328493 1.918170983438898e-26)
(-0.001860617775596366 0.0002332755529465861 -1.16816573217721e-26)
(-0.001845767785304066 0.0002314087231419247 1.114260751320365e-26)
(-0.001831581591095246 0.0002296189428165012 6.328381172247186e-24)
(-0.001817991101427468 0.0002278976044808859 -6.592189065988089e-24)
(-0.001804938028074236 0.0002262363548847188 -6.816009644911382e-24)
(-0.001792342868795841 0.0002246226927402814 4.999378473511585e-28)
(-0.001780130331224881 0.0002230447045544095 1.277984199464233e-42)
(-0.001768427232618986 0.0002215173782363934 -2.933027662702671e-26)
(-0.001757476209188529 0.0002200993025090781 -1.473163117740148e-23)
(-0.001747061728860588 0.0002187899429448823 0)
(-0.001736885046031093 0.0002175093561520245 1.501110999355483e-23)
(-0.001726961121680896 0.000216259378450496 -1.507826174567204e-23)
(-0.001717282657375209 0.0002150389960539338 -1.511352855818184e-26)
(-0.001707832607608363 0.0002138457428052874 1.512485947976865e-23)
(-0.001698590596394343 0.0002126768668629179 0)
(-0.001689528434917282 0.0002115285173495107 3.006132411425672e-23)
(-0.001680612143394538 0.0002103960157538055 -2.991028986689336e-23)
(-0.001671776225674388 0.000209270588070556 0)
(-0.001662921613649844 0.0002081396299499713 -5.168980307067369e-28)
(-0.001653986771647262 0.0002069970281277289 -2.922680353313095e-23)
(-0.001645119053926255 0.0002058647005982617 -1.439091192012172e-26)
(-0.001636404394932284 0.0002047603692961627 1.371038499690749e-26)
(-0.001627768609890169 0.0002036652097872272 -1.131081552343945e-22)
(-0.001619208478127473 0.000202577567186523 5.583543833181748e-23)
(-0.001610717176437992 0.0002014964384299602 5.510524338052602e-23)
(-0.001602289217002441 0.0002004207969620732 -1.348551485714498e-26)
(-0.001593912527306229 0.000199349061356257 1.071025268842996e-22)
(-0.001585591281560815 0.0001982815145477859 -2.573551388597617e-26)
(-0.001577375518157232 0.0001972274714065254 -5.187530129346666e-23)
(-0.001569232190613098 0.0001961898505799709 -1.190326107805801e-26)
(-0.001561100183963008 0.0001951512011655953 1.206063383703473e-26)
(-0.001552976364153544 0.000194109927279595 -9.865679926050919e-23)
(-0.001544859002561353 0.0001930652442033299 -9.692656116199302e-23)