/*--------------------------------*- C++ -*----------------------------------*\
| =========                 |                                                 |
| \\      /  F ield         | OpenFOAM: The Open Source CFD Toolbox           |
|  \\    /   O peration     | Version:  2006                                  |
|   \\  /    A nd           | Website:  www.openfoam.com                      |
|    \\/     M anipulation  |                                                 |
\*---------------------------------------------------------------------------*/
FoamFile
{
    version     2.0;
    format      ascii;
    class       volScalarField;
    location    "518";
    object      yPlus;
}
// * * * * * * * * * * * * * * * * * * * * * * * * * * * * * * * * * * * * * //

dimensions      [0 0 0 0 0 0 0];


internalField   uniform 0;

boundaryField
{
    airfoil
    {
        type            calculated;
        value           nonuniform List<scalar> 
570
(
0.003123806062871329
0.003407750238154626
0.003607982956521006
0.003714292886200793
0.003732873152392778
0.003651264818481315
0.003464146569257961
0.003167641105994805
0.002769790334193232
0.002306028193600669
0.00187775969100588
0.001674791702779655
0.001861947989009266
0.002294792362312642
0.002705015527918872
0.002992006316757576
0.003099342728411884
0.002935894521565557
0.002469380850535278
0.001977463537101386
0.001736170085541318
0.001828776380464494
0.00234175608012543
0.002962870511407235
0.003529594816187047
0.004039423212691376
0.004551802136340458
0.005118149408971355
0.005761952783299242
0.006515607400984991
0.007367684687604229
0.008299205461968674
0.009252857714736435
0.01017607728770467
0.01095143178545173
0.01146294899100587
0.01156613051946614
0.01115141108569443
0.01011552751477275
0.008267806758588072
0.005502035037097011
0.002954292432219914
0.001751107324341942
0.001205926725819515
0.0008678792875184424
0.0007825269151945354
0.0009647784182659517
0.001038167874772619
0.001440143837689601
0.002071539154630897
0.002914251993019062
0.003811514329955757
0.004494802995111091
0.004653410789628368
0.004261036693279882
0.003788866763861863
0.003730736700693457
0.004023750536448168
0.004398329369644743
0.005345126141695024
0.007307315738406496
0.01014552270105037
0.008737210118850695
0.005222126118722149
0.01787907630823743
0.0303518937217809
0.04029961430013921
0.04790021933787311
0.05365440679095277
0.05795070247840274
0.06099104579407857
0.06282579441687709
0.06328634318351448
0.06201609976363785
0.05908110721384222
0.05584574033347035
0.05420602497822542
0.05360300649170739
0.05282361241938251
0.0514310444173901
0.04937570373376393
0.04665479674838248
0.04327486147950478
0.03924605346058962
0.03458502475235255
0.02931099732513423
0.02344688776231122
0.01701654996291213
0.01004143369273544
0.002568759976359511
0.005349321574757669
0.01370676018880744
0.02246085944756585
0.03155422031614541
0.04094882393512075
0.05059430032842462
0.06043707155435323
0.07042255868105508
0.08049874018183725
0.09062133809481007
0.1007591017925364
0.1110700754985504
0.1229879369601902
0.1393964592551354
0.1602326719280149
0.1811855745475786
0.2005086852402009
0.2189129819777682
0.2369239942826993
0.2549049254753554
0.2728381502061377
0.2904711987604536
0.3074717007185332
0.3236837878252572
0.3389183131388194
0.352928384020245
0.3654045632450903
0.3759978073571969
0.384352495898077
0.3900200973185007
0.3923763262351359
0.3904730358666266
0.3820665657398497
0.3681982520271651
0.3551191035182668
0.3492422774522201
0.3478452473694159
0.3444454578889106
0.3400506966760241
0.3356329068120157
0.3312721627437467
0.3268172360865471
0.3222351321789608
0.3175519586204579
0.3128058163448452
0.3080043375568102
0.3031768120918041
0.2983466975866302
0.293536929384929
0.2887593726422785
0.2840278943652624
0.2793537505708925
0.2747439633486936
0.2702075136983888
0.2657510332265619
0.2613767729287871
0.2570882682707792
0.2528902233556578
0.2487827104443613
0.2447645640328397
0.240837935611088
0.2370035416556638
0.2332588993025209
0.2296023118806011
0.2260358628951263
0.2225595207086868
0.219174328821149
0.2158670256679617
0.2126626322814544
0.2092415307048428
0.205876363221552
0.2027752016587282
0.1993778247249009
0.1957559625628996
0.1921088773004096
0.1884464849611276
0.1847596041989545
0.1810447290805285
0.1773037127018107
0.1735396627834806
0.1697542139239355
0.1659523332870369
0.1621328413063582
0.1583019435578735
0.1544596079251845
0.1506054141649276
0.1467388217517341
0.1428601317293307
0.1389625614350376
0.1350497585674703
0.1311087639610332
0.1271377821931872
0.1231111287479943
0.1190333359630101
0.1149027187227114
0.1107419570518625
0.10650393830428
0.1022607762137774
0.09782686376621959
0.09318867949996544
0.0882289292946821
0.08361350866560494
0.07918992054376492
0.07516897079366644
0.07148476023541432
0.06808883660603582
0.06501295396060483
0.06218899415907396
0.0596305358320416
0.05728805884859087
0.05515601784929392
0.05320995809939329
0.05143094546603065
0.04980229266835364
0.04830848289112918
0.04693368950996984
0.04566319653374629
0.04448497521634968
0.04338859106280969
0.04236308494577013
0.04140029283876809
0.04049114231540824
0.0396314938966903
0.03881457763870332
0.03803486675091357
0.03728920059715563
0.03657326048555706
0.03588464787061771
0.03522074398948231
0.03457718892830808
0.03395406271410147
0.0333503513168661
0.03276166150381042
0.03219101461976979
0.03163398930182086
0.03108919831191349
0.03055442686434984
0.03003270602726508
0.02952185789613915
0.02902119772676339
0.02853025409629718
0.02804868840877538
0.0275760694574493
0.02711247423568119
0.02665672988163575
0.02620913254454215
0.02576981918951241
0.02533882473001545
0.02491574782120438
0.02450017180880336
0.02409206351050189
0.02369143636035433
0.02329842041639901
0.02291285102819479
0.02253542692933692
0.02216525363451372
0.02180339746346251
0.0214487854996634
0.02110203070298563
0.02076300311188732
0.02043179766444659
0.02010848973444544
0.01979303098948028
0.01948568844670448
0.01918582256398503
0.01889419576209526
0.01861034932104737
0.01833470888146976
0.01806698151445206
0.01780724946252913
0.01755617039562481
0.0173129766043019
0.01707809622964846
0.01685138063626734
0.01663290879996904
0.01642241821885481
0.01622035389536973
0.0160259045237362
0.01583982185810123
0.0156614072429585
0.01549081299533387
0.01532807686474072
0.01517273137844533
0.01502504629635205
0.01488450595367594
0.01475135491966309
0.01462498522247473
0.01450591842244082
0.01439323058016629
0.01428756248056671
0.01418820137842874
0.01409507277361719
0.01400850334717171
0.01392748767989075
0.01385276524189319
0.01378365324461685
0.01371809392106033
0.01366051699069544
0.01360723780826812
0.01355951518544105
0.01351807841748751
0.01348275418402023
0.0134525708380611
0.01342731558094775
0.01340778789377282
0.01339389327800949
0.01338521531115953
0.01338156349475521
0.01338350986199239
0.0133912455867075
0.01340477194413445
0.01342365340353601
0.01344790322748197
0.01347820146508073
0.01351469464786081
0.01355758837128133
0.01360707092083153
0.01366295736621511
0.01372543457147932
0.01379518643024651
0.01387254282579377
0.01395788539930732
0.01405165288165524
0.01415429467132796
0.01426631753141663
0.01438786199521537
0.01451946084289846
0.01466221964217975
0.01481691136430361
0.01498439086756326
0.01516560576464354
0.01536156883114484
0.01557340084121201
0.01580233686850981
0.01604978246488665
0.01631719037660746
0.01660626462969713
0.01691985699833615
0.0172603758936546
0.01762907338636535
0.01802817155332025
0.01846070828789276
0.01893003008454922
0.01943989562521646
0.01999455292450697
0.02059876788111081
0.02125801503094114
0.02197856309735038
0.02276748789130715
0.02363300429977986
0.02458466524294904
0.0256335391458502
0.02679262506248914
0.0280772450155915
0.02950562107886115
0.03109952779627881
0.03288513992734423
0.03489383749421565
0.03716292736667981
0.03973549028978698
0.04265734016086176
0.04596889279289493
0.04968139274800185
0.05373602595237482
0.05788532545609831
0.06163801096373429
0.06361880342750582
0.06358103852480855
0.05271914712133563
0.02783524060482278
0.002819043553867969
0.006890236601743585
0.004089329705740198
0.009428783708424338
0.0151718855364501
0.009791671295494077
0.01942141318567552
0.01868512161446433
0.02482472227224043
0.02874241093707638
0.04274871531191925
0.1283857779739076
0.1777182556055802
0.1877622066465586
0.191649229540634
0.1879816647048624
0.1815984071615768
0.1738986725531975
0.1659902736736782
0.1583764398624716
0.1512713846478197
0.1447310180834542
0.1387461925335476
0.1332718308954637
0.1282515086991145
0.1236341726651697
0.119377917964619
0.1154462624584844
0.111807743110918
0.1084381428215194
0.1053106714588778
0.1024031611003149
0.0996947917387896
0.09716823485989064
0.09480805468309385
0.09259929189740627
0.09052909735650834
0.08858607307010184
0.08675951204996343
0.08503991743227483
0.0834175562628014
0.08188338728345158
0.08043607755935629
0.07908002216587594
0.07780487163175033
0.07659485521158911
0.07544516001325713
0.07435200069254141
0.07331148005040795
0.07231985556216207
0.07137332954629348
0.07046812075075159
0.06959927642090979
0.06876045136638971
0.06794638940343521
0.0671608861797983
0.0664074243774624
0.06568204536667469
0.06498277509418994
0.06430785759896944
0.06365580209667862
0.06302497016474651
0.06241424209740299
0.06182412698495011
0.06125294204337067
0.06069780505544353
0.06015730127116147
0.05963052688917999
0.05911684242552817
0.05861734992127914
0.0581308232601908
0.05765432505895133
0.05718674660092114
0.05672803109976444
0.05627987643269246
0.05584066019884628
0.0554074865995671
0.05497990118512227
0.05456031454286816
0.05414749898785374
0.0537379476793123
0.05333305980413518
0.05293391512559929
0.05253714135775869
0.05214129453401443
0.05174697905731213
0.05135313840509503
0.05096102597959917
0.05057906479913201
0.05019857118823084
0.04982003188427724
0.04944258208909809
0.04906498681721248
0.04868811049071903
0.04830925672212843
0.04792498011117582
0.04753840249911345
0.04714988863328184
0.04675881703637215
0.04636696306188563
0.04597175192082376
0.04557397372199184
0.0451735880714969
0.04477009403687547
0.04436217558074706
0.04395079765635273
0.04353549786327778
0.0431165738270267
0.04269081130072383
0.04226023263599853
0.04182521182737379
0.04138470006122844
0.04093902433189524
0.04048580924802686
0.04002748991131844
0.0395628507406886
0.03909147012311787
0.03861347311087392
0.03813059734702143
0.03763801064786608
0.03713822486400195
0.03662889417075443
0.03611072847829161
0.03558402305902885
0.03505159697738687
0.03450258003653923
0.03394646654278662
0.03336661475872733
0.03277158206682325
0.03215759201962894
0.03152454880416812
0.03085771411962833
0.03016384155519864
0.02944844549157078
0.02870941710691215
0.02794347885119024
0.02714796436868815
0.02631745778770917
0.02546208388927847
0.02455880186982883
0.02364376224899781
0.02270643650255989
0.02178649805682601
0.02090615024290242
0.02007010105059929
0.01932063883005913
0.01872897399223225
0.01836612280121423
0.01827563290050978
0.01844843794261383
0.01882472160344916
0.01920388936693499
0.01945697053746824
0.01946159955612623
0.01919240019629819
0.01867871258013663
0.01786035471871628
0.01684708188715854
0.01555554108133747
0.01397995143646706
0.01210093438305128
0.00992861457068386
0.007533009307833578
0.005032008015522326
0.002593704348863845
0.001070659985320609
0.003053647291460721
0.005415054073209878
0.007715346626277597
0.01000703529331278
0.01198077893303949
0.0139256882201799
0.01548000197700846
0.01680420680302216
0.01784886340870791
0.01858349825205268
0.01898809504191828
0.01899326345244715
0.01855251731572741
0.01747694358856676
0.01562693616316456
0.01281824339170436
0.00896776043521599
0.005102941355139708
0.002204055963066998
0.001634639694687535
0.002556939834779428
0.004086578998105775
0.00589198655778698
0.006902805593537216
0.006881879265472965
0.006218110369777906
0.005314691620597481
0.004463244813038521
0.003766405884780083
0.003271619818509599
0.002975569961416392
0.002846080986049456
0.00282082353385338
0.002829419499577265
0.002799339099405591
0.002678305826354864
0.002439564276707361
0.002088167632571032
0.001656195892736871
0.00121602979798657
0.00113025489259826
0.001625952994246446
0.002175144884404122
0.002705849815993084
)
;
    }
    farfield
    {
        type            calculated;
        value           uniform 0;
    }
    side
    {
        type            empty;
    }
}


// ************************************************************************* //
