/*--------------------------------*- C++ -*----------------------------------*\
| =========                 |                                                 |
| \\      /  F ield         | OpenFOAM: The Open Source CFD Toolbox           |
|  \\    /   O peration     | Version:  2006                                  |
|   \\  /    A nd           | Website:  www.openfoam.com                      |
|    \\/     M anipulation  |                                                 |
\*---------------------------------------------------------------------------*/
FoamFile
{
    version     2.0;
    format      ascii;
    class       volScalarField;
    location    "0";
    object      yPlus;
}
// * * * * * * * * * * * * * * * * * * * * * * * * * * * * * * * * * * * * * //

dimensions      [0 0 0 0 0 0 0];


internalField   uniform 0;

boundaryField
{
    airfoil
    {
        type            calculated;
        value           nonuniform List<scalar> 
570
(
0.2732501927841563
0.2764002532310968
0.2773707419969573
0.2785616004470212
0.2801874689826796
0.2824665276702207
0.2857490322991248
0.2906348747784404
0.2981857764812871
0.3100806817094755
0.327760043079246
0.3477606402096531
0.35697307354173
0.346350689296515
0.3252418750201733
0.3051100821099669
0.279879247231194
0.2560951144132474
0.25036952777105
0.2510799600571462
0.2503103473537235
0.2506117499110535
0.2506165657359563
0.2506185173690369
0.250616923054114
0.2506154076834744
0.2506171960572309
0.2506184755763097
0.2506163791521378
0.2506155263327555
0.2506177255879258
0.2506182517888912
0.2506159182061375
0.2506157990485357
0.2506181633140243
0.2506178611628195
0.2506155917398429
0.2506162327783198
0.25061843325201
0.2506173529582348
0.2506154247805086
0.250616765399816
0.2506185239346098
0.2506167969415232
0.250615419274942
0.2506173236020226
0.2506184410138646
0.2506162628471807
0.2506155759217098
0.2506178367728351
0.2506181801745983
0.2506158230652393
0.2506158923737651
0.2506182360498682
0.2506177538841712
0.2506155372099072
0.2506163503589821
0.2506184683842395
0.2506172263336505
0.2506154105300398
0.2506168920059726
0.2506185222324047
0.2506166687943619
0.2506154429101779
0.250617445557826
0.2506183971793048
0.2506161517738174
0.2506156337969032
0.2506179408556942
0.2506180963079168
0.2506157427899317
0.2506159868468291
0.2506183043539809
0.2506176387198787
0.2506154952042886
0.2506164685109696
0.2506184962698825
0.2506171001040637
0.2506154030146496
0.2506170202957449
0.2506185091362028
0.250616545096967
0.2506154717006581
0.250617566987719
0.2506183440906123
0.2506160477030119
0.2506157063674243
0.2506180292523337
0.2506180103028108
0.2506156681217409
0.2506160838924303
0.2506183652324586
0.2506175207260313
0.2506154603495231
0.2506165909277966
0.2506185157301152
0.2506169710470157
0.250615405479757
0.2506171476767125
0.2506184867378882
0.2506164239634029
0.2506155094787524
0.2506176842156687
0.2506182818765625
0.2506159464959793
0.2506157759989334
0.2506181265429046
0.2506179017891922
0.2506156108409001
0.2506161931113568
0.2506184147264266
0.2506173994768839
0.2506154330432607
0.2506167168022863
0.250618524479814
0.2506168440042406
0.250615414627201
0.2506172746988127
0.2506184548527298
0.250616306675578
0.2506155491683772
0.250617591623452
0.2505796719394813
0.251726118880551
0.2545040828564678
0.2558621312898773
0.2560837146676858
0.2563391590119437
0.2565904138270155
0.2568348632935944
0.2570731217647851
0.2573048608779091
0.2575284123462189
0.2577430083556719
0.2579492612270137
0.2581471321074923
0.2583368566971788
0.2585183354903742
0.2586913222978603
0.2588562168550222
0.2590134457850601
0.2591632784297708
0.2593060002902103
0.2594419080501763
0.2595713038356073
0.2596944906208361
0.2598117686053354
0.2599234324411485
0.2600297691361469
0.2601310565164605
0.2602275621479241
0.2603195426438732
0.260407243238308
0.2604908976162054
0.2605707279221854
0.2606469448858649
0.2607197478184139
0.2607893096861715
0.2608549538758823
0.2608556558314019
0.2607764721334987
0.2607295654029436
0.2606108336422684
0.260439925213058
0.2602767866459975
0.2601219744612415
0.2599752525269415
0.2598364769749662
0.2597056045053815
0.2595821277085389
0.2594655603981476
0.2593558034322859
0.2592534349847596
0.2591576836519823
0.2590674740295297
0.258984129083945
0.2589064034039493
0.2588343661561999
0.2587677994735412
0.2587064724529629
0.2586502481567213
0.2585984916346928
0.2585519204593785
0.2585093313568892
0.2584707552126781
0.2584364483414249
0.2584011315169715
0.2583907144614925
0.2582005158071935
0.2581788367854929
0.2583957632975876
0.2586047009603747
0.2588541230494211
0.2590227437603494
0.2591590686093616
0.2592715502417866
0.2593626297156241
0.2594370884827807
0.2595011122126346
0.2595563092360636
0.2596022415125178
0.2596410392796326
0.2596757488580944
0.2597071975774611
0.2597341029439906
0.2597571177658602
0.2597784073968073
0.2597989430575487
0.259817170307614
0.2598327737740423
0.2598476298077326
0.2598630151207058
0.2598773384611263
0.2598895895986667
0.2599014017927137
0.2599144902679037
0.259927501259592
0.2599386896928916
0.2599493054793189
0.2599612351553501
0.2599745674120015
0.2599866925508683
0.2599975178218476
0.2600080458943543
0.2600212083544906
0.2600363444562929
0.2600497782373253
0.2600621239299259
0.2600756955531768
0.2600909852067009
0.260105521150474
0.2601200413164504
0.2601363081495175
0.2601534820431391
0.2601710731781962
0.2601892592303425
0.2602081526215745
0.2602278342725156
0.2602483700017887
0.2602698183371491
0.2602922344431373
0.2603156722158985
0.2603401854843506
0.260365828755756
0.2603926577149581
0.2604207296149185
0.2604501035694382
0.2604808408599238
0.2605130055800982
0.2605467702975762
0.2605824454538206
0.2606197593366256
0.2606585163312249
0.2606990465068884
0.2607416345664622
0.2607869348654023
0.2608342890811646
0.2608831227296316
0.2609347752379033
0.2609897112083465
0.2610465827468818
0.2611059709928431
0.2611693815794185
0.2612350367673627
0.2613041340489179
0.2613772373251622
0.2614529313909967
0.2615333994026447
0.2616172777800855
0.2617056319596562
0.2617983090842481
0.2618956149437561
0.2619978473599888
0.2621051197297529
0.2622179260311467
0.2623360810587366
0.2624607538719035
0.2625907733517188
0.2627285898838758
0.2628721814068748
0.2630234033303465
0.2631828557870113
0.2633489290417796
0.2635249336213869
0.2637092325605233
0.2639017703504067
0.2641057837513261
0.264319627870422
0.2645428931056443
0.2647786431949712
0.265027244351282
0.265286662412586
0.2655589284444561
0.2658465941942609
0.2661489658210766
0.2664651861533062
0.2667969821128889
0.2671469268118994
0.2675149795303985
0.2679013837381672
0.2683061186368314
0.2687312294632097
0.2691790704197613
0.2696498070294083
0.2701443136431393
0.2706636572712202
0.2712083630475826
0.2717805726615196
0.2723827398306947
0.2730156323718091
0.2736805503514195
0.2743791524187608
0.2751131310956907
0.2758840936398377
0.2766933120749955
0.2775436191746416
0.2784380262838683
0.2793780477819528
0.2803657259984405
0.2814034540801386
0.2824938456358691
0.2836395388399712
0.2848433350599923
0.2861081874042202
0.2874373749053078
0.2888342427021391
0.2903038514465247
0.2918481688096353
0.2934679859551605
0.2951691001915378
0.2969572873228368
0.2988368956748149
0.3008124943866319
0.3028889446487107
0.3050714302094791
0.3073652756275048
0.3097762985957752
0.3123106930391221
0.3149747665669786
0.31777521575467
0.3207193286886969
0.3238146471129914
0.3270691521814784
0.3304912244127725
0.3340895450135155
0.3378727335299054
0.3418484938588927
0.3460211425059634
0.3503865264954527
0.3549204525918858
0.3595544403551765
0.3641279708966975
0.3682986476384945
0.3713801085521527
0.3720688510792971
0.3679742642048658
0.3551832186509856
0.3250338226599542
0.2866513504758949
0.2629670534701252
0.252192698052761
0.2461650556733921
0.2429861911312221
0.2413801786041068
0.2407085068510704
0.2407058605770793
0.2413763270336787
0.2429903006375188
0.2461632493095872
0.252181179002314
0.2629601161929198
0.2866400954834447
0.3250130947832083
0.3551603084554715
0.3679486110907499
0.3720357635777549
0.3713379371711106
0.3682471242798884
0.3640675993118822
0.3594861945086226
0.3548454493476011
0.3503056047273962
0.3459350810062931
0.3417581242999868
0.3377787393319089
0.3339924686844515
0.3303916132451735
0.3269674976357937
0.3237113876722248
0.3206148629321833
0.3176699175003521
0.3148689728315538
0.3122047111594402
0.3096704137640437
0.3072597493235271
0.3049665054358806
0.3027848566642476
0.300709471660961
0.2987351682338442
0.2968571114930382
0.2950707783915731
0.2933716944192348
0.2917527601541954
0.2902074144205949
0.2887377919061002
0.2873427765947529
0.2860157924455505
0.2847532519789897
0.2835519193519477
0.2824087946806907
0.2813210336774677
0.2802860145011057
0.2793011623978788
0.2783639825576101
0.2774719420105234
0.2766221347994455
0.2758134488069868
0.2750447719927006
0.2743135030241759
0.2736176195269359
0.2729554338873025
0.2723253885327623
0.2717256243883812
0.2711539542306105
0.2706101377680546
0.2700936042837876
0.2696022049556915
0.269134673527928
0.2686895670562552
0.2682648645294987
0.267860984097748
0.2674778581175181
0.2671135058533234
0.2667663297788088
0.2664347954582999
0.2661199032532469
0.2658216174769461
0.2655374928602297
0.2652656785263091
0.265007539928693
0.2647635735314167
0.2645302619110638
0.2643074417537299
0.2640970307427973
0.2638968197087975
0.2637049417227762
0.2635237606847956
0.2633514242111694
0.26318636952019
0.263030949597958
0.2628821392049581
0.2627406912471185
0.2626069564363007
0.2624788287065894
0.2623579889145496
0.2622424086415194
0.2621330168218984
0.2620288469671248
0.261929995715932
0.2618361037210039
0.2617468213185669
0.2616623707889765
0.26158160979707
0.2615057768607616
0.2614329590245355
0.2613645321081826
0.2612997399909276
0.2612373928393902
0.2611794984259345
0.2611242633403824
0.2610712397364111
0.2610221629183625
0.2609756796061154
0.2609309440492964
0.2608889772360871
0.2608500347524565
0.2608131955635196
0.2607780554807639
0.2607450752018088
0.2607141893174534
0.2606854264780654
0.2606586684735518
0.2606335570792595
0.260610053420524
0.2605882513748358
0.2605680885923689
0.2605495075792172
0.2605324561796685
0.2605168879314239
0.2605027624627698
0.2604900462367905
0.2604787139016198
0.2604687506971691
0.2604601568802982
0.2604529557067047
0.2604470475617565
0.2604418464367938
0.2604376760314099
0.2604351363711129
0.2604343654748991
0.2604360975726296
0.2604375357082482
0.2604376690887943
0.2604432576919581
0.2604506134395765
0.2604552764303769
0.2604616370443736
0.2604718582141592
0.2604846094933688
0.2604967092538062
0.2605092384492435
0.2605244221370178
0.2605430127898338
0.2605625599390579
0.2605823502936418
0.2606049041726564
0.2606312102647381
0.2606592024931624
0.2606881631789073
0.2607206939832315
0.2607575976454386
0.2607969684084124
0.2608386050770098
0.2608854766218737
0.2609379834843681
0.2609944118212838
0.261055609029843
0.2611251620606504
0.2612031623797731
0.2612884411151379
0.2613840465118465
0.2614947032002746
0.261620679067809
0.2617632092004972
0.2619319860255002
0.2621325791986165
0.2623697417767762
0.2626914717031129
0.2629948246540398
0.2632933534692712
0.2633527456774706
0.2632517689317622
0.2633200789593692
0.2633801262946762
0.2634425630105842
0.2635061333564376
0.2635706605726553
0.2636359787913297
0.2637026814464154
0.2637707342407389
0.2638393920924744
0.2639097284100096
0.2639811390432352
0.2640539925077326
0.2641283459396452
0.2642041469351636
0.2642821395753127
0.2643611695271082
0.2644429187786688
0.2645271604218455
0.2646132254076737
0.2647020799080188
0.2647941454752036
0.2648897067086241
0.2649888452574106
0.2650919115939719
0.2652097177457218
0.2652576045870986
0.2654787738396127
0.268040180267986
)
;
    }
    farfield
    {
        type            calculated;
        value           uniform 0;
    }
    side
    {
        type            empty;
    }
}


// ************************************************************************* //
