/*--------------------------------*- C++ -*----------------------------------*\
| =========                 |                                                 |
| \\      /  F ield         | OpenFOAM: The Open Source CFD Toolbox           |
|  \\    /   O peration     | Version:  2006                                  |
|   \\  /    A nd           | Website:  www.openfoam.com                      |
|    \\/     M anipulation  |                                                 |
\*---------------------------------------------------------------------------*/
FoamFile
{
    version     2.0;
    format      ascii;
    class       volScalarField;
    location    "518";
    object      omega;
}
// * * * * * * * * * * * * * * * * * * * * * * * * * * * * * * * * * * * * * //

dimensions      [0 0 -1 0 0 0 0];


internalField   nonuniform List<scalar> 
28643
(
964298.6630663632
942444.2079966401
1002149.953063613
155018.2893474911
935860.7417007306
151063.914663102
1021581.221100549
161867.7342419703
47294.54576607392
927876.1886830626
149866.0959289103
45903.00768307857
1023285.489408644
165426.3322027038
49709.87723271042
19961.77323161649
917138.8951517047
148432.9928955581
45477.73092830353
19302.68068531105
1023655.048669586
165775.6007523568
50986.24950065436
21109.69038965719
10116.11765217095
902398.8732113237
146509.5890150386
44979.03909557434
19101.09363267272
9755.346755625815
1024565.070872174
165875.5051196977
51128.93682079462
21725.23569467447
10750.40316858418
5734.52211934256
881785.5692846294
143874.5526609669
44310.5935968215
18869.09632802651
9647.997085400548
5523.073297391027
1025362.233328594
166072.0745712066
51179.87714378217
21799.97244717782
11093.71156664519
6114.486478967205
3496.232846862578
852387.4889733916
140200.4849007322
43396.75005904298
18556.55198225927
9525.982239860206
5465.586054299994
3367.672465595896
1026129.896725273
166247.6850268948
51265.5736982277
21830.44457351468
11135.67341572858
6320.862644013048
3735.060267640523
2248.742468882238
809764.3753773625
134983.1403461688
42126.9073038257
18128.14645140603
9358.000975840818
5400.704681305801
3338.531767541497
2166.196944109136
1026870.676250595
166416.5646037996
51344.861685311
21879.93630769333
11154.59066815625
6343.936998103011
3865.050112860834
2405.158870902758
1521.42091997263
748829.7469647283
127467.9326861153
40334.06245761977
17533.00733085589
9124.287291108556
5306.341856541064
3306.602720056404
2150.346955575514
1463.236014788651
1027585.11510254
166579.7177642543
51421.57321006819
21928.74329168724
11188.01758771214
6355.663701915263
3877.62267479655
2491.219973497471
1628.808055878685
1085.742112464316
670224.7917474904
116831.3859367299
37775.42435252834
16696.12168828005
8796.948673359846
5169.85467254198
3254.961848481708
2135.325405014948
1450.389700476763
1040.858730644217
1028275.340317149
166736.587193469
51496.22323560217
21977.19207999793
11224.54755861006
6380.76442547727
3885.229267710642
2499.598405109191
1689.460381676463
1163.307146038471
815.1687086856781
595349.0287374982
103311.3951168121
34206.21824146905
15511.95072519069
8336.079219955054
4973.948086615768
3174.537868661734
2107.813795869515
1440.561691045827
1026.943730732067
778.5704147413036
1028944.557298171
166887.5425160782
51567.54553077513
22025.14563674214
11262.6236390482
6411.728104524495
3905.121165565045
2505.433879214107
1697.311045177571
1208.754384639496
873.8756977238224
638.7808069362609
565017.0941732251
90653.64675710579
29765.06118187805
13883.58700706856
7687.63780580388
4694.797607502818
3053.48864981448
2060.794039546957
1423.562573381705
1016.606693857802
763.4764158763218
608.0446915196466
1029600.228290602
167033.1636328592
51635.39796914662
22070.5081262992
11301.32541927138
6445.920739287291
3932.121643587364
2521.021138913498
1702.677781596608
1217.088194564662
909.6347637084725
684.9573790149204
517.7389444560274
600206.087494438
85586.66406026385
25709.54621626827
11899.4411499492
6807.206001015913
4301.728011924477
2875.980439271827
1985.755990576867
1393.962953132912
1002.252968862641
751.6538984087896
592.6636271374286
491.4754877876543
1030237.10091752
167175.0744028623
51699.90159712894
22112.59287722983
11337.62286666307
6481.780794063918
3963.421641987647
2543.015779117761
1714.382568290665
1222.352116587313
918.2535835604982
714.1256410397843
555.1616043636946
430.6752588780134
680643.3424207633
91468.84859352316
24114.19663995954
10129.74393028376
5755.002586896675
3772.821553169242
2623.042603048699
1870.910571861795
1345.961447515599
979.906779749445
737.3844891856708
580.0500950285948
476.5195248934321
407.966173130186
1030853.35397014
167312.0241309903
51761.94080970914
22151.2463807303
11370.14443390169
6515.464101927689
3997.290212635855
2569.308514179701
1730.526157050788
1230.996938833401
923.396542081953
722.6759841733052
579.5902804500716
461.701849377436
365.4673832063714
773427.1250714493
105092.8973264314
25965.80574041222
9444.04048075715
4835.969891697481
3151.187343609096
2283.305846577101
1703.384736108127
1270.215102185672
945.698641103695
717.7662938513503
565.773315812418
463.8804201423428
393.8219543970945
345.6554144614419
1031462.066612756
167444.5041912644
51821.16033428333
22187.25091583822
11398.38771993274
6544.866537725555
4029.610378553424
2598.56614211445
1749.994674146257
1242.078870608694
929.9423452238688
727.6340112040424
587.8488181050566
482.5667383993281
391.6402682141941
314.9438539567981
121136.0741133117
30341.01328059361
10237.22055194169
4483.554381477917
2617.468249333975
1888.536849696102
1476.64085958411
1157.335329837507
892.7954992384799
690.1638796778034
547.634858487091
450.0263667905461
381.6394432052816
332.4857922187342
297.5377632104303
1032054.199969601
167574.9465452894
51878.6946283568
22220.92972816939
11423.11314756929
6568.994543149125
4057.754552992119
2627.229081768766
1772.066984716509
1255.231587299499
937.5020176259408
732.8299254539818
592.5922286081847
490.4315476866684
409.7276631613948
337.3165576936083
274.6741188119054
35650.71285083743
12148.81614974444
4886.384434793607
2412.823891076939
1553.202124859772
1214.036686193931
1002.839119165207
814.2196862979831
650.0610763912155
523.7024126641937
433.2161212145956
368.5389527948685
321.0023680385339
285.381302338388
259.2964085214101
1032635.533522652
167702.0968125728
51935.85865500673
22254.01188227872
11445.2856843502
6588.465003174731
4080.181956278118
2652.688104148765
1794.272629084762
1270.190647957449
946.1255717005837
738.1856926054036
596.9277487290221
494.9593709049176
417.1675433461453
353.1752432413
293.9944493310516
241.808019632474
14539.61426191474
5877.879054932635
2638.841307305152
1421.971825367508
991.2387084948898
823.3616176480513
706.6770511720746
592.3935205020078
491.1996964913531
411.9876117603233
353.0889677342523
308.816912271091
274.6926388423674
248.1291887627697
228.162250746533
1033205.63072863
167827.4175417649
51993.01759700433
22288.06781107108
11467.26352347664
6604.656059064964
4097.142770403038
2673.099268420026
1814.592035290575
1285.50138965053
955.7980490367482
743.95150278262
600.9562215961065
498.735839426841
421.492627430539
360.1937571643255
308.0213670222813
258.6249263696105
214.4448341592887
7154.842581411644
3211.066663953138
1555.4227612051
899.6631189151036
670.0297511554483
581.6900995395168
515.0040540301242
446.5184595787891
384.4920560932446
334.1406403311991
294.7184224944289
263.4661682551953
238.250754739613
217.931591134221
202.2937295230955
1033764.907865056
167951.2061709092
52051.6057822412
22324.59367160112
11491.282992465
6620.527177762897
4110.07172792931
2688.270543276246
1831.391315972584
1299.907435398104
965.7457792042757
750.233296352941
605.0118749997639
501.9707492528314
424.8939295648519
364.3332307042819
314.6370194122359
271.116082278597
229.1733122756573
191.276642544629
3970.559130240352
1909.722882622541
979.0329793362744
602.2818000129502
474.1298732643866
425.9805760781503
388.5164923315428
348.387000594959
310.3531131003697
277.7721766269147
250.6553662317784
227.9615838692655
208.8379293115197
192.9356015360219
180.4268457343878
1034316.206383091
168073.4451410535
52112.47022635274
22365.79122003245
11519.91579051727
6638.993019056645
4122.294139512584
2699.418782774426
1844.313648026508
1312.331790876139
975.313531905657
756.6544394076037
609.2561033617311
505.0235783524591
427.6527013361847
367.4726582638006
318.6075327215216
277.352377321529
240.3553817735826
204.2386320761264
171.3788475604747
2396.899073638492
1208.289458987245
647.7656030758588
422.6542052195153
349.3946936167771
323.3270171322866
303.189715928502
280.2920402173394
256.9753666577629
235.4769469546601
216.3429745785294
199.4319954574891
184.5818483095807
171.8744783364262
161.6700590417262
1034854.729854345
168193.745375434
52175.3152674562
22413.23491197449
11556.33911127237
6663.496755568895
4137.179492634813
2709.858384269255
1854.381242361256
1322.614398895076
983.9721833306177
762.93940724367
613.531889017042
508.0775239713373
430.1241552689062
369.943846487817
321.5558059802869
281.1680084358213
246.2361986834184
214.2893835080629
182.8298920890245
154.0826058897131
1538.855742533705
798.8553233701607
446.5322426855295
309.875988118041
267.5142456397383
253.9525341526188
243.9693745352777
231.4256379096068
217.1601646437133
202.7228872126801
188.8982573451165
175.9914241750304
164.2077845210952
153.8579529873066
145.3797067224968
1035388.850782555
168309.0304340901
52236.98690443576
22466.23350022746
11602.87175974961
6697.930386204924
4158.624807190341
2723.089634539949
1864.589896078477
1331.784750531015
991.8746467951265
768.9403393877401
617.7793604576515
511.0935035073375
432.4955643349485
372.0835748190963
323.8517948612617
283.9696977229455
249.9076636104883
219.8370485609231
191.8918109247022
164.22974760658
138.8944952789776
1032.130798865238
545.5891028490321
320.5167796317734
236.8478243237168
212.084923370187
205.6202922235597
201.5331602664357
195.1496887866204
186.4963788901262
176.649820447261
166.43498785606
156.3613080292144
146.8233316939759
138.2452858338726
131.0817649951515
1035912.747213474
168418.0506328404
52290.16939103355
22518.04204854686
11658.31325002579
6745.020618273762
4190.62247797902
2742.941066721384
1878.203177201787
1342.400268429897
1000.156643238911
775.0494788761863
622.0732146783993
514.1249253600741
434.7879876222341
374.0733325698353
325.8075595239599
286.1571978892847
252.5909348777513
223.3714953892587
197.1265290613596
172.419411698842
147.9086143892548
125.4443457599493
712.4987155474851
384.1527945712261
239.9205660567244
187.9126389272552
173.2733025341186
170.8156232639911
170.0779502332263
167.343744746306
162.2058182816977
155.3939155633699
147.6800998790588
139.6503354481082
131.7885023144051
124.5658634957914
118.4211791409511
1036426.195997769
168520.1755989095
52327.53179441289
22554.71043895442
11712.63356919111
6803.018912635303
4235.676907166278
2772.807737040882
1898.423468100324
1357.196561691359
1010.964820543435
782.4786060144869
626.9345347576038
517.3596885317694
437.1074531154871
375.9613598540561
327.5936482028922
288.0159796259052
254.7088078073911
225.9540446265
200.5275803571747
177.3593446682883
155.3232906385116
133.4688638860393
113.4503709424689
502.3944276004238
280.1965832623195
187.0392739408912
153.8663971380596
145.1484420630762
144.9207215030534
146.0173065809203
145.4139022227265
142.4849921209086
137.7031351049445
131.7501629673984
125.2219147857156
118.6347436791701
112.4679887069635
107.1280920953788
1036933.835745134
168620.4338589715
52351.89230358958
22560.9352378697
11745.87102340267
6860.38989059642
4291.571591797532
2814.315276950742
1927.500429246009
1378.406484189804
1026.448082951214
793.0424647224659
633.5862523604146
521.3633445724464
439.6875695479773
377.8709057969951
329.2665716708541
289.703127708357
256.5206090798666
228.0237917820525
203.0203789120311
180.6272302455984
159.9841927964764
140.1912602359885
120.6075197510971
102.7042148835298
362.56435138392
212.4122757244956
151.0608307206004
129.2803587125302
124.0932200872861
125.0606726317625
127.0854647531832
127.680178168366
126.1281654929271
122.7130856820488
118.0171962483035
112.6118856867686
107.0129590230814
101.684921379091
97.01162025040236
1037434.345082708
168724.7610388815
52378.85691863207
22542.58078682671
11734.08238462539
6894.903281814014
4347.363289492792
2864.885441300063
1965.83869986299
1407.032818443965
1047.93001922466
808.412424745477
643.588960183327
527.319903281634
443.0858012273877
380.0413473513819
330.9463735503351
291.2728800683576
258.1693089816258
229.8157912787911
205.0525444450965
183.0369847051437
163.1172175557261
144.586264984182
126.7092570317289
109.1009975512816
93.03634551594212
269.4495589476937
167.1212602896121
125.6165220762473
110.9045545640711
107.8552600513832
109.4052700713183
111.8121173722156
113.0231206795839
112.3073438720277
109.81270807015
106.0256421287762
101.4759291422331
96.65920440943535
92.04377873864952
87.90412301101905
1037926.3831563
168827.9751970314
52416.91904997448
22530.54122621632
11681.8691354815
6876.418002900513
4382.931804314995
2915.012480112189
2010.67461506657
1442.449584779251
1075.470575465113
829.2671650663008
658.2793612481872
536.5984352915191
448.4184247965687
382.9922548538443
332.8551567861655
292.8306681630431
259.7013463618507
231.4593346125751
206.8375168276498
185.0350910638386
165.4475121668303
147.582228513402
130.8492003186476
114.6498245487922
98.76378662095651
84.30803723865661
206.9672823114493
135.8508326082235
106.9475253925318
96.74222187702925
94.99425040783058
96.75836908235421
99.21661910973469
100.6769035482897
100.4405818220316
98.56146936570551
95.43958087858672
91.5550765473136
87.42219498505817
83.36882372172664
79.66998293129922
1038400.102676471
168942.7921823505
52464.66264217834
22539.12904184392
11635.51522871358
6801.238020173272
4367.057208975823
2948.424892054219
2053.84527880682
1481.990922298749
1107.833911733617
855.1001133854396
677.9467669512577
550.3183775677688
456.9109347656078
387.7586064565195
335.4588485413718
294.5685052095399
261.2017005054935
232.9907475182778
208.4921746742319
186.8166674365789
167.4106054145866
149.8342142777562
133.7059378341326
118.5444147451171
103.8147223444608
89.44361725012938
76.41106953060641
164.2005321937736
113.4895010295159
92.78866834103145
85.52771958908646
84.56273169175819
86.31716034358463
88.62785681496089
90.10540316581097
90.11097002730753
88.63691209894726
86.00828536946891
82.72262224987077
79.11652457368828
75.51656439478519
72.20713208093467
1038939.521791642
169066.7975338736
52547.19150427019
22576.8697732214
11622.05568536768
6724.283006104433
4284.085430195253
2937.239039354131
2082.377104817451
1518.67049170485
1142.633905911052
884.4008423174142
701.7964628970389
568.5618746521012
469.5492269013461
395.4579421865685
339.7061772749501
296.8911148388811
262.8257794568523
234.4722762088152
210.0424224985756
188.4878604574121
169.1865317905229
151.7585099660598
135.8791036252112
121.258210135514
107.4705517573428
94.0430753730532
81.0250729978071
69.25777964597926
134.1006382637059
96.95327719746362
81.73300088748628
76.43269015611044
75.92018825744742
77.52927281998234
79.57594994803912
80.92599999338323
81.01542891044654
79.80055733819249
77.62984433799954
74.7847684101379
71.58763759847319
68.38923807133139
65.43317095643114
1038143.388361659
169212.5420454067
52674.01875282468
22686.58829813815
11666.270800544
6695.062563339578
4186.911958516755
2858.268787278304
2073.079038242459
1541.886048158308
1173.912217538353
915.10206466535
728.2393241833026
590.4168689139252
486.3249845007921
406.9996812179469
346.6326524952367
300.6603922647092
264.9142462153279
236.0201943682544
211.5278227158966
190.0651754386153
170.8726718983106
153.5228243670668
137.7591327450542
123.3485680477298
110.040272916012
97.46461416374673
85.21678695913384
73.41414731801372
62.77575888625378
112.2598027391763
84.34651750915255
72.87717981461275
68.89822190529593
68.62270003585984
70.00622954180911
71.72549650200997
72.8614626519158
72.9314612779537
71.96972716994505
70.10485795367276
67.57695326422453
64.74228845132576
61.90836508317919
59.28055899494909
1038612.12795884
169110.5007888836
52837.05519878827
22892.99106377018
11826.71310313717
6755.633953284457
4154.873845144321
2756.932910065059
2002.44502387478
1532.623920912766
1192.78441871488
942.114258126802
755.4958861210608
614.3146688204794
506.3056085986883
422.3571749908323
357.1092008394574
306.8478549229777
268.2434236649917
237.9109224272548
213.0256177871924
191.5671071392754
172.4779481676631
155.2177552625714
139.5035881444284
125.176229571732
112.0448867026547
99.89193287657473
88.40708281487835
77.23950156326347
66.53276293197963
56.91804683387696
95.93843388393159
74.4714247165017
65.62215258681583
62.53660020374593
62.35590930290488
63.46974062363105
64.83338657968898
65.70877006166846
65.78294991938483
64.94573975157275
63.2625864534313
61.01234553462578
58.50695340493616
56.01060852295082
53.71299513830204
1040971.559824607
169225.6473657183
52896.16221353706
23163.09938843729
12138.61519575345
6965.286509852273
4236.429044445146
2738.76854309706
1911.161912686639
1470.998822758668
1183.55863948907
957.8613300099472
779.1970955257557
638.7137113262683
527.9876782042062
440.6301797172707
371.1350905439185
316.3105794165672
273.7326753051456
240.837163979596
214.7493488950471
193.0337724456141
174.0024480912445
156.8469339546793
141.1982086508093
126.8902419821701
113.8127630220875
101.8093987543197
90.69476240923174
80.20048634597858
70.02901892135318
60.32515995616496
51.62896962732058
83.40868240576081
66.547845472215
59.55870208643414
57.07575159612519
56.89319941410741
57.71757003090776
58.72153510035799
59.38574253380363
59.38394330831113
58.5583586155092
57.02548295794933
55.02500497357796
52.82426062350274
50.67212411405976
48.67715804503689
1043377.24007002
169681.5639614769
53002.36202480658
23346.91426420507
12537.37909993173
7359.423569636881
4470.293216968775
2838.159063564187
1915.740448559321
1396.439534836838
1130.748282175901
949.2459489164341
792.8085468964928
659.8406333050244
550.0188320139454
460.3974937172395
387.8708543651992
329.1008168697335
282.2401623112129
245.6729810605864
217.3102331534625
194.6180617806352
175.4523554109245
158.3953799470628
142.8438027921343
128.5729250310611
115.4857636187341
103.5114438242799
92.52343577863368
82.3528808062858
72.76553951150737
63.52305383764843
54.73157214513608
46.85571933767021
73.55111871889994
60.05229716974647
54.40001322313167
52.31938831242185
52.06896361366624
52.6013963362664
53.30148175511835
53.73396212309326
53.57352834314658
52.74118631453675
51.33786403012195
49.56651152928447
47.68542999306165
45.84076739849475
44.12282367683372
1045937.682527217
170136.446779675
53207.63893315279
23497.94829364757
12826.65072085616
7849.772878817691
4887.418246731021
3065.484115125575
2023.353458196666
1420.796525321339
1073.004039521694
904.5890743763579
785.2686738301176
672.0178752133584
569.1213239368715
480.4546573817759
405.9811910482834
344.4551505867255
293.8874463995631
253.2852791632693
221.5401338936629
196.8520614856938
176.9225549675283
159.8394634249048
144.414046817777
130.2245281717144
117.1442122863932
105.1336891019935
94.15396363321162
84.09117419998404
74.78731470953457
66.04287861012094
57.65733500308158
49.69577074239243
42.57264439728463
65.62361596876802
54.62377004734319
49.94034806673328
48.11949209586715
47.76113399295061
48.03704382149715
48.45048327865747
48.61104403852508
48.29485479514803
47.44879641850959
46.16196602299444
44.64388247294946
43.04049340739767
41.46877927229949
40.03626681694016
1047831.064692238
170611.5772123194
53388.78417279151
23654.40633798497
13018.54412037868
8198.102226644998
5401.223534923893
3450.242336879249
2225.588997051332
1527.023962227887
1109.467153385122
860.8687598854546
747.8101412720895
665.7981716500677
580.3393310238811
497.9401707510156
424.3764572946431
361.122288351741
307.9956226620645
263.8742595856474
228.3165223021349
200.5258160231464
178.8688803688645
161.2186649876428
145.8602760908192
131.8111581876336
118.789997689428
106.7557421363456
95.71617386152175
85.64510369321403
76.4339610329437
67.93769753773429
59.97180481600191
52.37196455823674
45.18304106619298
38.74333203578279
59.121621815537
50.00718126584034
46.02918074650554
44.36707775496626
43.89657447289942
43.93227386096049
44.05235994206644
43.96606488390954
43.50883797370378
42.65171186352894
41.51624381281348
40.21112077902472
38.84570631986614
37.55671873942114
36.38948137522772
1049436.436178515
170958.3491584599
53558.42213622801
23762.13334395399
13161.19434757674
8397.399877715576
5756.515997458014
3928.913225366949
2551.104544879451
1699.532137903408
1208.85834512815
903.0045054078261
714.9314071413485
634.5214806928625
575.523323325287
508.5174506351624
440.5484294391109
378.1019311793246
323.3939414084984
276.8506233200876
237.9227541824879
206.5242697628294
182.0383813697281
162.9166732087679
147.1709619013812
133.2642790872102
120.3854149688577
108.3831739831635
97.28983505003126
87.13882439149398
77.90701089218314
69.49098601511103
61.74385031217455
54.49637500114875
47.62501014629154
41.14876776080202
35.33720480204164
53.69358352422064
46.01864698625128
42.55544967978761
40.99645639739693
40.4002734798967
40.19944102486967
40.06112344172731
39.76246652487069
39.18894203751942
38.37023671986549
37.35911883522633
36.22940988696295
35.11630110173956
34.08663733681949
33.1641179311892
1050789.962923022
171246.876810656
53665.86480456165
23835.45965979225
13236.90474644411
8518.98887364903
5932.934479784722
4256.611943550696
2962.376904104476
1963.229504366528
1354.437177004809
993.7800509898268
758.789620543919
609.8231532501368
549.4970757304761
505.0962322346229
450.6994898410651
393.1885972743949
339.1524590841268
291.1210837299114
249.8626561082721
215.2148962504589
187.3158034534939
165.635995538454
148.6606859886613
134.5272680451505
121.8474402255833
109.9780619534287
98.88582376276993
88.65272887334201
79.32486762862854
70.87899747113092
63.20312207450044
56.15104719563351
49.57618229371464
43.37009296195561
37.5470524989366
32.35668253866611
49.08938350833198
42.5241079856494
39.45022323619555
37.93653319612738
37.20727306292255
36.79883492080324
36.44308865505177
35.97406037766805
35.3487679289773
34.56606439591806
33.65474986022766
32.72417632336043
31.84383179831057
31.05288674706924
30.38142971113427
1051934.975552843
171484.7986036971
53739.16043239811
23853.39971159973
13262.94265572355
8569.512504751503
6023.735486502185
4398.849239936626
3245.174455993611
2298.005427431884
1564.991167152827
1117.365519947003
841.1003106644387
653.3114443101563
530.9739195389218
483.527325877206
448.6178849421159
403.0591499623678
353.3274851270609
305.8125640494986
263.118623315216
226.1974361159087
195.1509651616878
170.2487302324445
150.9824254978863
135.8484482290889
123.0810452200771
111.4483089748967
100.4692058659387
90.2041548194936
80.76867022306234
72.21428578628871
64.50329744185842
57.51710782585299
51.1183643589593
45.1664452506644
39.56475172753188
34.35561366702512
29.78704114430824
45.12715740037905
39.43746249174404
36.640175831675
35.13419083760206
34.28402948502635
33.70153946509084
33.17432328417338
32.6068393687246
31.95336380924081
31.20343419172266
30.43009961327537
29.69225933696326
29.03144602323954
28.49115048921681
28.05651433874936
1052948.516273607
171681.1262620062
53783.33990562479
23833.93938699521
13230.66061637898
8566.935211438471
6050.489868412944
4459.085749586321
3353.589561804562
2529.574831688191
1828.10597782457
1285.781716008406
947.4091311978777
728.0591780205884
573.106607099252
469.7248386416405
430.854586912643
402.2420100364922
363.0172286018481
319.2095282206576
276.8654997141413
238.5297834819949
205.241870697979
177.2832033975287
154.9867838446828
137.822852659665
124.2716277149074
112.6678931951983
101.9440348884217
91.76385357804345
82.26288039334226
73.57855141314096
65.75093470007313
58.72826133984913
52.39199754780579
46.60206876159845
41.22298890927912
36.18454962140284
31.55657305396688
27.64764136884691
53.09899077536671
41.68711439415159
36.67393855185667
34.0707943350592
32.55967196526961
31.60632353671205
30.88798090683457
30.25782316336414
29.63165233377678
28.96777377943431
28.304063456073
27.68220649333806
27.13876211406614
26.7201645129606
26.42620228298571
26.20519957286254
1053839.959836181
171850.0412674417
53804.53283117412
23782.49415914047
13153.98521813879
8507.412657386185
6029.269221418519
4465.913228561072
3388.875680734312
2608.126041050055
2009.033681475074
1487.78034787811
1083.370253855677
820.9274435397737
641.3757430131334
510.1232620458136
420.7306497968616
387.7569771692411
363.3833453600617
328.7868522057286
289.5880950227724
251.4295714169812
216.7233201276922
186.5375675691548
161.2716017840079
141.2754886761843
125.9471964070449
113.7632104288119
103.1612404178694
93.23686026228681
83.78603350065723
75.00352530987276
67.0279333225885
59.88499488251817
53.51334219626899
47.78531256375675
42.55924895450643
37.71470041881111
33.20004213468654
29.15939103326388
25.96942562513661
48.39780000526145
38.65854476194417
34.16581375836918
31.71086747439995
30.19149405744466
29.15870746639075
28.36211872618671
27.67208305943991
27.01857343568548
26.40820036196462
25.86395724744879
25.41392673981037
25.1019615434672
24.93567984249523
24.88005781928915
24.85796831097209
1054611.064877097
172001.535684022
53810.03627606607
23706.1349722902
13038.01524479016
8401.304029633566
5957.568526822158
4432.361990005112
3381.126837226381
2624.7871203222
2062.370277178451
1622.670151594027
1235.617187604505
931.9586792162978
723.7422274599465
572.9516718438529
459.3374303209193
380.5676516604051
351.7523053008304
330.2557963260036
299.0996326894162
263.5588057092277
228.8537337510215
197.2263139984847
169.736376539548
146.8593759237575
128.9055707088916
115.1853765624997
104.1928793739417
94.45925526084687
85.24840571796544
76.4769342791801
68.37306139925205
61.06895169154902
54.57684809266468
48.81736612338244
43.65583225976047
38.95656133495307
34.60487678003661
30.60024045954157
27.18213628029101
24.77307164447758
44.37199026639628
35.94731558584597
31.87465797019734
29.53803000717362
28.01657896101298
26.94714930291155
26.10940633269756
25.395611904091
24.78214252651694
24.27247600395009
23.88523941530495
23.65902468774253
23.60541864059382
23.70248431246355
23.87183563554108
24.01808131908704
1055299.584603752
172122.5361054249
53809.52722004065
23612.4552154023
12889.85444111108
8252.045336396648
5842.57964192082
4356.314449460838
3340.333263579594
2607.626848979306
2065.891790463135
1655.358404065692
1330.892031631377
1044.515742648154
815.3985720917962
647.01098211622
517.638185959972
417.4904513791519
346.968278460045
321.1374101113553
301.5948754604064
273.0357530815861
240.4531046654365
208.6492508775443
179.6791466188947
154.5755712883034
133.8361809518637
117.7083195598617
105.4080611703432
95.45426877418657
86.47936110180395
77.91779821169204
69.78403853556713
62.32541716913973
55.66338634117783
49.78684067267508
44.60076405489527
39.96975158644085
35.75556698599983
31.8687391081388
28.38298574266853
25.65045884992463
24.02673795644802
40.85243058354229
33.50065519708794
29.77296113755056
27.53883242116284
26.04155041953274
24.961809924762
24.11719196385876
23.44477245677883
22.92531092657773
22.56651624553965
22.40094858018318
22.44194757602354
22.67764860530266
23.02699116055658
23.38391552836429
23.62129026118109
1055929.969156205
172240.6413387835
53799.31491543533
23513.04655908685
12717.48384364501
8064.659630707562
5686.12171474572
4242.769228220386
3264.737961613325
2564.018779801343
2043.573161202977
1650.094076098418
1347.145468463545
1106.954066298403
896.4496412740626
723.2989649862692
585.0058561455131
472.0364334030056
382.3951646851748
318.3857389951532
294.7139732944801
276.4858115397911
249.9154652145878
219.7684941942577
190.4437931655731
163.8101747388352
140.8408100915528
122.0333001140428
107.550452155577
96.50976118272435
87.45966711865746
79.15645084490548
71.19133434676698
63.66235686795887
56.82395786028523
50.77338224994002
45.47710603214823
40.83003240926141
36.68927803681775
32.92463966705817
29.48644273781855
26.56542327167093
24.55913310069305
23.61286595181414
37.74888784112217
31.27997899383053
27.84354405900188
25.71755869642287
24.25839014489733
23.19711841954095
22.40509392318662
21.82903527248871
21.46143100975225
21.32771911321477
21.44204046915415
21.79962151929754
22.31714509352541
22.87577959812321
23.32227998490468
23.50836350440975
1056492.598881
172343.6433598726
53798.99030613444
23413.84977507363
12536.43544128873
7845.453597288438
5490.755011026243
4092.854805997802
3158.032432987069
2492.612620836719
2000.614931811674
1625.782389941199
1336.3684294953
1110.496432622947
932.3789393880807
779.245568917504
648.7788688874983
533.8827125467651
433.8251375906781
352.5384473625972
293.7380346842901
271.6198129512965
254.2541277095297
229.2280065278521
201.1216789125733
173.955477961317
149.3983943835988
128.3610719441388
111.3181651135685
98.32111826175694
88.39873204932506
80.13832854359417
72.43318877061571
65.02357005191294
58.07648269173369
51.83279400902278
46.36295686709329
41.61492799957532
37.46881433181032
33.78047917879509
30.43288263250522
27.45860739660246
25.1572587801417
23.83260220927712
23.33051609092402
34.99363843657234
29.25922629687575
26.08565717829467
24.06720143363302
22.66652263651249
21.67574154691496
20.98871220910526
20.5705394193488
20.43581372750978
20.59836614187043
21.05818881428977
21.73040117067616
22.48236198204405
23.13075756403545
23.48904405847395
23.43467130219663
1056988.060031691
172442.8283100219
53802.88112643177
23334.87231563549
12357.9063060286
7615.043914044455
5260.581063574235
3907.859149192186
3021.364095648448
2396.344085519069
1936.009106259352
1585.740230613449
1312.154028069545
1096.553603583602
926.3801923676905
794.1981140859544
684.5525851565276
587.1518375715722