/*--------------------------------*- C++ -*----------------------------------*\
| =========                 |                                                 |
| \\      /  F ield         | OpenFOAM: The Open Source CFD Toolbox           |
|  \\    /   O peration     | Version:  2006                                  |
|   \\  /    A nd           | Website:  www.openfoam.com                      |
|    \\/     M anipulation  |                                                 |
\*---------------------------------------------------------------------------*/
FoamFile
{
    version     2.0;
    format      ascii;
    class       volScalarField;
    location    "518";
    object      p;
}
// * * * * * * * * * * * * * * * * * * * * * * * * * * * * * * * * * * * * * //

dimensions      [0 2 -2 0 0 0 0];


internalField   nonuniform List<scalar> 
28643
(
0.2849052711890107
0.2846520382612933
0.2851956986265398
0.2849051920864265
0.2843898150510972
0.2846519973595039
0.2854659067653251
0.2851956416617127
0.2849051799315436
0.2841665435020091
0.2843897828021049
0.2846519526986078
0.2856387891563362
0.2854658869143016
0.2851956537529299
0.2849051889298042
0.2839844142814344
0.2841665184723426
0.2843897467258323
0.2846518893303979
0.2856763265354495
0.2856387482724411
0.2854658760480908
0.2851957018059013
0.2849051819779852
0.2838632650360119
0.2839843982810329
0.2841664922316204
0.2843896880996556
0.2846517823545057
0.2855509910474984
0.285676259204978
0.2856387011891319
0.2854658813634871
0.2851957587334746
0.2849051277559657
0.2838121286320099
0.28386326142842
0.2839843817896384
0.284166440219117
0.2843895797251536
0.2846515914583526
0.2852570713958221
0.2855509011603831
0.2856761745695162
0.285638660026049
0.2854658967996697
0.2851958001357705
0.2849049611613736
0.2838408837629861
0.2838121446452044
0.2838632566330022
0.2839843358065855
0.2841663306266582
0.2843893797215598
0.2846512422472298
0.2848073120734702
0.2852569675065765
0.2855507829234182
0.2856760852511331
0.285638619759806
0.2854658980106402
0.2851957644466122
0.2849045697340016
0.2839523381319858
0.283840931152517
0.2838121529219441
0.2838632187234292
0.2839842252038806
0.2841661186341831
0.2843890158634287
0.2846506205539676
0.2842404525588349
0.2848071957129276
0.2852568242847778
0.2855506487781523
0.2856759850891454
0.2856385537263589
0.2854658161079616
0.2851955351847699
0.2849038093428955
0.2841385652181502
0.2839524360531162
0.2838409534318636
0.2838121231298072
0.2838631096575147
0.283984001151615
0.2841657324413314
0.2843883809737121
0.2846495901866589
0.2836081964251353
0.2842403390677835
0.2848070377713058
0.2852566537147878
0.2855504918737023
0.2856758468755726
0.2856383881452193
0.28546552207765
0.2851949549446211
0.2849025429995043
0.2843707449670544
0.2841387333459575
0.2839524708828296
0.2838409303860424
0.2838120170275461
0.2838628760482218
0.2839835898642794
0.2841650709279764
0.2843873493900037
0.2846480272012789
0.2829770638689823
0.2836080927975657
0.2842401805472915
0.2848068472864631
0.2852564505500996
0.2855502865255269
0.2856755977517111
0.2856379870190634
0.2854648436343759
0.2851938696421548
0.2849006804012785
0.2845928095008978
0.2843709622935799
0.2841387733505253
0.2839524487519576
0.283840827628315
0.2838117758947334
0.2838624398395915
0.2839828928498112
0.2841640196026001
0.2843858065540327
0.2846458499890385
0.2824104574129661
0.2829769768627234
0.2836079459919021
0.2842399840643258
0.2848066150230069
0.2852561912963046
0.2855499659670318
0.2856751046698056
0.2856371712899296
0.2854636149679297
0.2851921772755668
0.2848981782903739
0.2847375495895335
0.2845929625101994
0.2843709951581015
0.2841387404953356
0.2839523459200616
0.2838405803113007
0.2838113146535391
0.2838617009353184
0.2839818030006178
0.2841624753245737
0.2843836727181466
0.2846430177704172
0.2819657888314991
0.2824103908360325
0.2829768520751948
0.2836077610385612
0.2842397425338684
0.2848063224940047
0.2852558190272
0.2855494084673152
0.2856741931853969
0.2856357727484283
0.2854617312658163
0.2851898319113964
0.2848950125687172
0.2847507376818937
0.284737575376411
0.2845929912320939
0.2843709468567219
0.2841386284333221
0.2839520899143861
0.2838400931075417
0.2838105268453197
0.2838605548625247
0.2839802275337614
0.2841603648784445
0.2843809031496625
0.2846395071823545
0.2816837681876629
0.2819657438944383
0.2824102942144858
0.2829766926122377
0.2836075313510031
0.2842394403847324
0.2848059235262532
0.2852552294406824
0.2855484536758185
0.2856727001013182
0.2856336887559361
0.2854591492853494
0.2851868100561748
0.2848911560894759
0.2846306030016608
0.2847507682311365
0.2847376021645562
0.2845929595921245
0.2843708210793528
0.2841383539957429
0.2839515704751459
0.2838392470078008
0.2838093036887286
0.2838589146772281
0.2839781007592497
0.284157642466573
0.2843774694791858
0.2846352930615437
0.2815837678822988
0.2816837405781568
0.2819656771246311
0.2824101692922087
0.282976492715201
0.2836072450334813
0.2842390433053418
0.2848053341949523
0.2852542833981852
0.2855469499391212
0.2856705262295928
0.285630880202154
0.2854558509268514
0.2851830851099741
0.2848865722217805
0.2843996499524996
0.2846307196715437
0.2847507291548301
0.2847375930070406
0.2845928434253876
0.284370519216845
0.2841377846624597
0.2839506473888084
0.2838379197935769
0.2838075576721745
0.2838567219313862
0.2839753798413091
0.2841542769266855
0.2843733441125054
0.2846303421920873
0.2816607507230461
0.2815837548552438
0.281683700667538
0.281965589812304
0.2824100112909815
0.2829762435766394
0.2836068779280081
0.2842384881374208
0.2848044412400551
0.2852528473443938
0.2855448026836063
0.2856676335966315
0.2856273309207911
0.28545181207123
0.2851786179312621
0.2848812140645013
0.284399837373547
0.2846306400763403
0.2847506199032026
0.2847374759775418
0.2845925251783814
0.2843698763861661
0.2841367457490019
0.283949171565168
0.2838360122864064
0.2838052325941768
0.2838539372905993
0.2839720317995424
0.2841502369765771
0.2843684930262758
0.2846246122176589
0.2818796394202335
0.2816607455959836
0.281583736147436
0.2816836494922043
0.2819654787658323
0.2824098138536655
0.2829759293108509
0.2836063864165058
0.2842376890553263
0.2848031316881239
0.2852508325473816
0.2855419734787876
0.2856640054348684
0.2856230180188332
0.2854469958150136
0.2851733574999804
0.2848750256437557
0.2843997693388535
0.2846304487648717
0.2847503740471083
0.2847371163268405
0.2845917978655547
0.2843686634534052
0.284135041039859
0.2839470149665211
0.2838334607805171
0.2838022916110612
0.2838505277701929
0.2839680238324417
0.2841454877568534
0.2843628755897043
0.2846180525930983
0.2821927353654697
0.2818796361737534
0.2816607397412178
0.2815837136719338
0.2816835836753396
0.2819653391048641
0.2824095668849537
0.2829755220845574
0.2836057101638849
0.2842365574460812
0.2848013282623766
0.2852482012963261
0.2855384438806678
0.2856596178419642
0.2856179038461226
0.2854413489607892
0.2851672400683032
0.2848679413919315
0.2843995770219647
0.284630120155591
0.284749851023957
0.2847362699896901
0.2845903544238534
0.2843666082579502
0.2841324876674624
0.2839440883778906
0.2838302241472537
0.2837987000013092
0.2838464566930325
0.2839633185108952
0.2841399869796383
0.2843564440607937
0.2846106042638832
0.2825172494704679
0.2821927284403187
0.2818796346189393
0.2816607361336901
0.281583685103012
0.281683499462276
0.281965163976493
0.2824092535653159
0.2829749831685724
0.2836047852549104
0.2842350283583636
0.2847989912536021
0.2852449315769043
0.2855341891112983
0.2856544319686704
0.2856119350959825
0.2854348053514115
0.2851601904911967
0.28485988672613
0.2843992762818456
0.2846295328155653
0.284748809268255
0.284734558776727
0.2845878160501481
0.2843634394799923
0.284128942492151
0.2839403307246667
0.2838262614141281
0.2837944158471333
0.2838416832480171
0.2839578733122245
0.2841336884286989
0.284349144903228
0.2846022003754405
0.2827886671851827
0.2825172367581261
0.2821927230512488
0.2818796388317545
0.2816607323673151
0.2815836460415175
0.2816833903400873
0.2819649422254519
0.2824088505311778
0.2829742703137938
0.2836035609702482
0.2842330644941645
0.2847961001903795
0.2852410007619033
0.2855291700239799
0.285648393557726
0.2856050434216912
0.2854272816976507
0.285152120244274
0.2848507768885649
0.2843987783087181
0.2846284940993201
0.2847468793636372
0.2847315092153104
0.2845837973982485
0.2843589266717407
0.2841242974512819
0.2839356818503997
0.2838215188644371
0.2837893892135988
0.2838361598027695
0.2839516404707735
0.2841265389974098
0.284340917997187
0.2845927656055006
0.2829200763193105
0.2827886484057154
0.2825172225512512
0.2821927239280323
0.2818796454582427
0.2816607219175103
0.2815835874064503
0.2816832453703264
0.2819646583942694
0.2824083316439568
0.2829733475393216
0.2836020050514843
0.2842306442635797
0.2847926290497972
0.2852363684564448
0.2855233326934569
0.2856414330394065
0.2855971438713182
0.285418680568671
0.2851429283137667
0.2848405173114555
0.2843979482880753
0.2846267223695655
0.2847435928537904
0.2847266473137468
0.2845779714518071
0.2843528847646802
0.2841184486534269
0.2839300630288898
0.2838159288342857
0.2837835624415286
0.283829835196532
0.2839445680627073
0.2841184829874164
0.2843316978318927
0.2845822169431381
0.2831021982042972
0.2829200723765175
0.2827886266840475
0.2825172116018441
0.2821927257193541
0.2818796437827785
0.2816606896288145
0.2815834928901199
0.281683049178736
0.2819642950368724
0.282407673194047
0.2829721889730614
0.2836000959655384
0.2842277434401113
0.2847885450892431
0.2852309864518538
0.2855166079092337
0.2856334643616461
0.2855881343301836
0.2854088849029938
0.285132498634842
0.2848290024417328
0.284396600644914
0.284623849851789
0.2847384730497547
0.2847195922101098
0.284570082310022
0.2843451415449845
0.2841112690170199
0.2839233729944871
0.2838094116602287
0.2837768718068887
0.2838226520584021
0.2839366001753322
0.2841094584327891
0.2843214127215608
0.2845704630724127
0.2837451162981973
0.2831022456327747
0.2829200665666872
0.282788604508897
0.2825171968147046
0.2821927116573232
0.2818796090293282
0.2816606084105996
0.2815833395383696
0.2816827842316512
0.2819638357540484
0.2824068562091396
0.2829707753567361
0.2835978121312918
0.2842243322666017
0.2847837995239409
0.285224785561886
0.2855089104768075
0.2856243836389847
0.2855778929512142
0.2853977611462901
0.2851207009469146
0.2848161164167043
0.2843944872272695
0.2846194748718142
0.2847311327149119
0.284710071011982
0.2845599028970206
0.2843355044205326
0.2841026011449359
0.2839154907284763
0.2838018775883564
0.2837692469856968
0.2838145508826415
0.2839276779239827
0.2840994019491377
0.2843099860757385
0.2845574047559627
0.2850420018855433
0.2837452390363098
0.2831023060889156
0.2829200571490287
0.2827885708759351
0.2825171548394826
0.2821926452419317
0.2818794989000313
0.2816604414758553
0.2815831029397137
0.2816824363038636
0.2819632676104156
0.2824058651770415
0.2829690878642223
0.2835951272511015
0.2842203689277817
0.2847783357437506
0.2852176887845476
0.2855001371190445
0.2856140669487712
0.2855662772598674
0.285385153066064
0.2851073891245781
0.2848017293240899
0.2843913136619909
0.2846132368316121
0.2847213057048059
0.2846978584415515
0.2845471923060713
0.2843237488641476
0.2840922601889657
0.2839062784719391
0.2837932263181064
0.2837606122962215
0.2838054667334988
0.2839177398871204
0.284088244663033
0.2842973349823361
0.2845429312538611
0.2857786471094148
0.2850421435055734
0.283745399920583
0.2831023711296304
0.2829200353185087
0.2827885006308102
0.2825170394148974
0.2821924676475437
0.2818792589893105
0.2816601524760384
0.281582765609967
0.2816819954967471
0.2819625794656666
0.2824046851586382
0.2829671050448388
0.2835920075951276
0.2842158040388376
0.2847720780466558
0.2852095938949667
0.2854901650504875
0.2856023681968139
0.2855531209846797
0.2853708856469934
0.2850924022017327
0.2847856875462976
0.2843867823000543
0.2846048637855394
0.2847087969139495
0.284682720576984
0.2845316819755995
0.2843096195791621
0.2840800374448861
0.2838955812255189
0.2837833471387877
0.2837508856100776
0.2837953341010255
0.2839067229764496
0.2840759161418579
0.284283369217665
0.2845269195047325
0.2838898167978859
0.2857786781189743
0.2850423302108187
0.2837455846841868
0.283102438525298
0.2829199823940325
0.2827883461908604
0.2825167799815362
0.2821921075888653
0.2818788396370824
0.2816597187812064
0.2815823200907135
0.2816814566309083
0.2819617619713131
0.2824033002664844
0.282964800751613
0.2835884120289544
0.2842105734478957
0.2847649412694366
0.2852003884807449
0.2854788487997699
0.2855891161786853
0.2855382330637119
0.2853547595003976
0.2850755514467747
0.2847678537047343
0.2843806333861861
0.2845941632904541
0.2846934164837194
0.2846643971855974
0.2845130773888236
0.2842928360141554
0.284065701050933
0.2838832266583384
0.2837721177854039
0.2837399803352132
0.2837840833604385
0.283894561091348
0.2840623379462561
0.2842679956243241
0.284509319120656
0.2793363335136914
0.2838896984191571
0.2857787155986071
0.2850425482179604
0.2837457987851389
0.2831025080677772
0.2829198666663504
0.2827880394491958
0.2825162957457515
0.2821915047452337
0.2818782136227334
0.2816591347158024
0.2815817660982501
0.2816808154815796
0.2819608052133052
0.2824016924208953
0.2829621439021063
0.2835842898476187
0.284204603480488
0.2847568166236577
0.2851899293020903
0.2854660182895308
0.2855741120312308
0.2855213941940283
0.2853365521096718
0.2850566161342392
0.2847479728422733
0.2843726628949979
0.284580976805751
0.2846749484232999
0.284642603292257
0.2844910655773981
0.2842730968999416
0.2840489983141961
0.2838690243550497
0.2837594059964598
0.2837278046111646
0.2837716417989181
0.2838811809409738
0.2840474378272334
0.2842512420591393
0.2844897505256452
0.2736998179189808
0.2793361244537097
0.2838895165081403
0.2857787511971154
0.2850428051663278
0.2837460619541806
0.283102583647204
0.2829196457257157
0.2827875066371442
0.2825155229883717
0.2821906295024186
0.2818773773468429
0.2816584052844536
0.2815811068156018
0.2816800708307516
0.2819597003278534
0.2823998410777061
0.2829590968869181
0.2835795807823048
0.2841978018100211
0.2847475823450374
0.28517805851764
0.2854514747227315
0.2855571263097535
0.2855023568259466
0.2853160213709872
0.2850353962322622
0.2847259747440273
0.2843627144470933
0.2845651402029338
0.2846531456146753
0.2846170371052111
0.2844653217766946
0.2842500869409246
0.284029657996605
0.2838527692406168
0.2837450700339393
0.283714255407525
0.2837579177055226
0.2838665139878609
0.2840313236342898
0.2842326535430436
0.2844683357211212
0.2685458205621334
0.2736996361175216
0.2793358240158594
0.2838892663734016
0.285778786161335
0.2850431241271366
0.2837464189379261
0.2831026745915914
0.282919276140958
0.2827866919770489
0.2825144324840397
0.2821894799960512
0.2818763402448694
0.2816575401051942
0.2815803478865502
0.2816792212327192
0.281958436923742
0.2823977221877239
0.2829556153502573
0.2835742120216049
0.2841900632328035
0.2847370872346437
0.2851645808195012
0.2854349888942725
0.2855378969693785
0.2854808695026199
0.2852929070028483
0.2850116607327945
0.2847017008994555
0.2843506569364804
0.2845464642577193
0.2846277359580038
0.2845873868643496
0.2844355191977478
0.2842234837610167
0.2840073985037539
0.2838342454488566
0.2837289466028527
0.283699189762145
0.2837428179354164
0.2838507734167686
0.2840134841061879
0.2842124717850616
0.2844449445680177
0.2641673394946227
0.2685456902655856
0.2736993571626719
0.2793354222072784
0.2838889535840986
0.2857788413132539
0.2850435655489708
0.2837469435290263
0.2831027948838169
0.2829187264076008
0.2827855718813435
0.2825130237131914
0.2821880680017291
0.2818751164879739
0.2816565512187877
0.2815794970178536
0.2816782687088488
0.2819570053441461
0.282395307923926
0.2829516460720913
0.2835680979668566
0.2841812586481858
0.2847251618043595
0.2851492806407851
0.2854162965229604
0.2855161516108888
0.2854566232698358
0.2852669006783469
0.2849851897397076
0.2846749851274926
0.2843363596848588
0.2845247314317645
0.2845984288027356
0.2845533408685525
0.2844013383742255
0.2841929709813653
0.2839819379934824
0.2838132113206941
0.2837107994271241
0.283682443765341
0.2837267121638063
0.2838333649221489
0.2839942273250983
0.2841906070291999
0.2844194557590379
0.2612040051313495
0.2641672562437611
0.2685454812255701
0.2736989681748048
0.2793349181225085
0.2838886069489434
0.2857789804405134
0.2850442433862219
0.2837477262520071
0.2831029565563414
0.2829179825541446
0.2827841447460231
0.2825113075802522
0.28218640900726
0.2818737219404139
0.2816554528917229
0.2815785647116819
0.2816772146329986
0.2819553934074566
0.2823925652998591
0.282947126440543
0.2835611362589326
0.2841712411099845
0.2847116004349207
0.2851318981279821
0.2853951144545158
0.2854915708012796
0.2854292577102405
0.2852377088504309
0.2849557512044341
0.2846456670150616
0.2843196762093441
0.2844996973293118
0.2845649246281387
0.2845145967380633
0.2843624817311451
0.2841582535483314
0.2839529837014221
0.2837893255189574
0.2836903511984277
0.283664648567526
0.2837088599231569
0.2838146584689817
0.2839734966040739
0.2841669864543142
0.2843917782370168
0.2595226563193453
0.261203914350033
0.264167108974271
0.2685451739979681
0.2736984836773403
0.279334371785129
0.283888324733626
0.2857793337746624
0.2850453104346534
0.2837488461426608
0.2831031653416581
0.2829170428847921
0.2827824199032175
0.2825092985102141
0.282184519184849
0.2818721741157284
0.2816542622052866
0.2815775641331811
0.2816760643033155
0.281953589030948
0.2823894556238282
0.2829419816221692
0.2835532071177896
0.2841598333906144
0.2846961732774747
0.2851121593449824
0.2853711231598853
0.2854637589277225
0.2853984115888947
0.2852050254674193
0.2849231044623414
0.2846137168354289
0.2843004361169577
0.2844710964945015
0.2845269238445016
0.2844708748745012
0.2843186889216613
0.2841190576731062
0.2839201504266295
0.2837622021313735
0.2836686328774558
0.2836448232539358
0.2836896626845451
0.2837946114910055
0.2839512514269937
0.2841415850759562
0.284362067964582
0.2593237119498049
0.2595226603955697
0.2612038097840056
0.2641668792361789
0.268544784237553
0.2736979869558584
0.2793339259656603
0.2838882806224246
0.2857800841300553
0.2850469168415022
0.2837503471330569
0.2831034207786571
0.2829159108302402
0.282780405906038
0.28250700887029
0.282182415031327
0.2818704926909243
0.2816529996016018
0.2815765120363899
0.2816748219016149
0.2819515762725132
0.2823859326057213
0.2829361235507304
0.2835441685042508
0.2841468347693464
0.2846786175114129
0.2850897467062579
0.2853439154581102
0.2854323156236867
0.2853637015782108
0.2851685387243007
0.2848870701213037
0.2845789320272836
0.2842784437305627
0.2844386474534754
0.2844841384120129
0.2844219315673843
0.2842697498670159
0.2840750679111778
0.2838830287848787
0.2837333403393872
0.2836443156359658
0.2836233287423047
0.2836690559140353
0.2837731979177683
0.2839275116255373
0.2841147703651472
0.2843300584729462
0.2601341090081977
0.2593237350449596
0.2595226309610567
0.2612036441296035
0.2641665744633391
0.2685443903569033
0.2736976553529099
0.2793338004543846
0.2838886920372555
0.2857814161138642
0.2850491576043925
0.2837522412371193
0.2831037205522113
0.2829145901743949
0.282778112277176
0.2825044517123926
0.2821801142732475
0.281868700486036
0.2816516897124759
0.2815754285226916
0.2816734956468017
0.2819493380000039
0.2823819413771516
0.2829294474061749
0.2835338555541508
0.284132015237574
0.2846586439490537
0.2850642658170267
0.2853130727622033
0.2853968111597479
0.2853247321157982
0.2851279743159602
0.2848474596125532
0.2845415020309504
0.2842534770196894
0.2844020595609819
0.2844363015186224
0.2843675832802406
0.2842154872286572
0.28402597510457
0.2838434100455605
0.2837010484822162
0.2836176306200631
0.2836000599613017
0.2836469928237244
0.2837504650463634
0.2839028810063746
0.2840862033318181
0.2842962380763652
0.2620255963903377
0.2601341394743923
0.2593237553626388
0.259522553266114
0.2612033963180946
0.2641662382255045
0.2685441478667586
0.273697738739541
0.2793342303037292
0.2838897369344521
0.2857834480204502
0.2850520700479128
0.2837545232226
0.2831040613181657
0.2829130839249036
0.2827755440403848
0.2825016379949303
0.2821776365267257
0.281866824256217
0.2816503619872922
0.2815743380681411
0.2816720919327816
0.281946851290078
0.282377416036849
0.2829218302530937
0.2835220805889035
0.2841151177805736
0.2846358761827838
0.2850352951206623
0.2852781418790826
0.2853567927784889
0.2852811439480852
0.2850830831012831
0.2848042184136267
0.2845017507805029
0.2842252872195336
0.2843610363878676
0.2843831988090851
0.2843077449576451
0.284155766607246
0.2839733828822389
0.2837995051310552
0.2836654294679218
0.2835884829449231
0.2835749557407343
0.2836235316780847
0.2837272930961886
0.2838769068836414
0.2840567004731068
0.2842612586888273
0.2648854381116083
0.2620256462922246
0.2601342001301501
0.2593237487806936
0.259522408038998
0.2612030654552506
0.2641659531201304
0.2685442650566547
0.2736984794385197
0.2793353616607843
0.2838914895328397
0.2857862165664775
0.2850556495162017
0.2837571839618056
0.2831044410539918
0.2829113935866618
0.2827727079944617
0.2824985812034602
0.2821750045761157
0.281864895860614
0.281649051609004
0.2815732690661413
0.2816706207715574
0.2819440898764453
0.2823722780396716
0.2829131305450228
0.2835086294579887
0.2840958094380002
0.2846099227694667
0.285002381884532
0.2852386358666447
0.2853118314396207
0.2852325922646109
0.2850336254095807
0.2847574277421298
0.2844599820029767
0.2841935957471803
0.2843153031249999
0.2843247541304856
0.2842424355887822
0.284091465018766
0.2839159707513079
0.2837514097168532
0.2836265368745498
0.2835568752819025
0.2835481228878464
0.2835998772553054
0.2837031140882589
0.2838507057040817
0.2840273021235403
0.2842255655882798
0.2687682843003681
0.2648855040237024
0.2620257452114675
0.2601342569926802
0.2593236902862835
0.2595221798109392
0.2612026686256725
0.2641658228186472
0.2685449409385162
0.2737000186303702
0.279337226592036
0.2838939409061755
0.2857897063845479
0.2850598839517303
0.2837602144647943
0.2831048575366807
0.282909519962061
0.2827696067939456
0.2824952941056129
0.2821722452066151
0.2818629531796025
0.2816478001527468
0.2815722548762314
0.2816690891241959
0.2819410185660089
0.282366435177388
0.2829031858545923
0.2834932264831865
0.2840737375651996
0.2845803414317024
0.2849650249699732
0.2851940764407435
0.28526149764495
0.2851787049958385
0.2849794914766097
0.2847072460759078
0.2844171712945436
0.2841581276097273
0.2842647126228928
0.2842610705737607
0.2841715816126072
0.2840222910127119
0.2838539188830614
0.2836994527845457
0.2835845737287561
0.2835230581912915
0.2835211606853491
0.2835753536773702
0.2836793494238692
0.283825735969139
0.2839986744859704
0.2841908478620261
0.2736799031084931
0.2687683654652464
0.2648856363727946
0.2620258596146064
0.2601342828183047
0.2593235553684108
0.2595218506660866
0.2612022233686615
0.264165941913609
0.2685463057400896
0.2737023790984763
0.2793397756806871
0.2838970473189968
0.285793889793403
0.2850647537857581
0.2837636092317166
0.283105310489464
0.2829074628929888
0.2827662468797323
0.2824917943064254
0.2821693906796894
0.2818610414372705
0.2816466565533781
0.2815713329906492
0.2816675058236211
0.281937596053359
0.2823597809323752
0.2828917848590355
0.2834755725844437
0.2840485001951879
0.2845466532370584
0.2849227230042376
0.2851439760133517
0.2852053085362526
0.2851192420870052
0.2849206711666136
0.2846540397723575
0.2843747572626532
0.284118760627022
0.2842093404041389
0.2841913441444966
0.2840960547421293
0.2839484114285536
0.2837878205007684
0.2836441334307927
0.283540041556688
0.2834890579889115
0.2834933722723803
0.2835516712973472
0.2836579266240326
0.2838028886664722
0.2839733649777706
0.2841595082252033
0.2797191513320088
0.273680004633526
0.2687685291636246
0.2648858009717611
0.262025961228959
0.260134250939487
0.2593233164956248
0.2595214056360726
0.2612017425057928
0.2641663794826104
0.2685484104819045
0.2737055141588567
0.2793429537893395
0.2839007693002917
0.2857987385842842
0.285070250410668
0.2837673647270902
0.2831057995303292
0.2829052224752456
0.2827626315782204
0.2824881005943584
0.2821664797509354
0.2818592142643058
0.2816456776408119
0.2815705454659009
0.2816658743245063
0.2819337714383889
0.282352173344139
0.2828786944893305
0.2834553258763996
0.2840196555655401
0.2845083505142066
0.2848749507034392
0.2850877753348607
0.2851429012157882
0.2850540486366352
0.2848571794039055
0.2845984478172447
0.2843347716441361
0.2840755710286779
0.2841481240045073
0.2841172693767148
0.2840157533876175
0.283870556260777
0.2837184479546828
0.2835862481566473
0.2834953088499012
0.2834543166213185
0.2834667486066856
0.2835312462547588
0.2836399914751962
0.2837855268295591
0.2839547468415929
0.2841346282165866
0.2868302564953871
0.2797192678460867
0.273680198930166
0.268768740435703
0.2648859699316937
0.2620260250131183
0.2601341338360086
0.2593229470691538
0.2595208271642643
0.2612012322732374
0.2641671788432712
0.2685512434819638
0.2737093511268882
0.2793466951713139
0.2839050696109293
0.2858042332552519
0.2850763604689631
0.2837714814840901
0.2831063267836116
0.2829027988488275
0.282758770222114
0.2824842392034686
0.2821635593804704
0.2818575350657752
0.281644928575462
0.2815699377083175
0.2816642001532518
0.2819294739573852
0.2823434524434422
0.2828636448282446
0.283432102121331
0.2839867257012844
0.2844649065075624
0.2848211059439446
0.2850250129906256
0.2850739815380491
0.2849829014740125
0.2847892214923313
0.2845415171327109
0.2843001908608692
0.2838979840740575
0.2840278276705072
0.2840828695134258
0.2840382789052967
0.2839314053861507
0.283789660504273
0.2836468560027012
0.2835282664959223
0.2834501981305369
0.2834210734241041
0.2834441529918305
0.2835154486123936
0.2836295117518067
0.2837778350083188
0.2839466512190664
0.2841206936541482
0.2950892871157747
0.2868303584031983
0.2797194887974297
0.2736804540498383
0.2687689725438202
0.2648861189568644
0.2620260223825343
0.2601339021363169
0.2593224211329857
0.2595200969717717
0.2612006943618359
0.2641683563129091
0.2685547501051777
0.2737138097412191
0.2793509586394842
0.2839099241798191
0.285810356613413
0.285083083871343
0.2837759616782443
0.2831068946387705
0.2829001937598164
0.2827546706200139
0.2824802400093264
0.2821606859028191
0.2818560777855997
0.2816444835202462
0.2815695607509516
0.2816624769288217
0.2819246182705588
0.2823334289864831
0.2828463269690624
0.2834054801861892
0.283949203259381
0.2844157006266166
0.2847606525134189
0.2849552818462703
0.2849981631856027
0.2849057026757339
0.2847171564127399
0.2844846348735943
0.2842742249804185
0.2838677892784564
0.2839768927642462
0.2840125449990739
0.2839549665848026
0.2838440064183815
0.2837069533924638
0.2835752886361019
0.283470676919109
0.2834071225405277
0.2833925627763546
0.2834271692855296
0.2835086416078965
0.2836310640214929
0.2837840276537078
0.2839541508929529
0.2841215250864801
0.3043014895761109
0.2950894519382783
0.2868305964045139
0.2797197822945688
0.2736807457001918
0.2687692016596466
0.2648862183564627
0.262025922463376
0.2601335287683523
0.2593217143165304
0.2595191980458373
0.2612001261400164
0.2641698975414341
0.268558842904648
0.2737188049283936
0.279355686521376
0.2839153059634958
0.285817099443821
0.2850904132265193
0.2837808116211963
0.2831075088615183
0.2828974104182863
0.2827503491560321
0.282476143346035
0.2821579266716708
0.2818549292666899
0.2816444264255207
0.2815694681933364
0.2816606956846752
0.2819191004223329
0.2823218809114401
0.2828263956320238
0.2833750006154465
0.2839064890866236
0.2843601617524254
0.2846930953532462
0.284878082519077
0.2849151587779319
0.2848223625002603
0.284641058584211
0.2844298776908786
0.2842565300251479
0.283834728449991
0.2839215547614211
0.2839374654698163
0.2838682846330907
0.2837549035190468
0.2836241848315518
0.2835051588289634
0.2834159274248644
0.2833695398362759
0.2833707124993345
0.2834203831395142
0.283515663837441
0.2836487881076371
0.283809435793673
0.2839805587656085
0.2841363196490642
0.3143307874356249
0.3043016110117521
0.2950897160486938
0.2868309364453668
0.2797201254324099
0.2736810513830705
0.2687693972304187
0.2648862340349338
0.2620256955806105
0.2601329877287168
0.2593208025171268
0.2595181090506427
0.2611995111877691
0.2641717559873594
0.2685634104533038
0.2737242464267952
0.2793608447772149
0.2839211983501523
0.2858244519536337
0.2850983547562886
0.2837860390933465
0.2831081763643716
0.2828944554653716
0.282745822942813
0.282471996106405
0.2821553631774686
0.281854188713118
0.281644853318409
0.2815697160264216
0.2816588338040494
0.2819127903756977
0.2823085532540409
0.2828034657326849
0.2833401205752838
0.2838580065417593
0.2842977282776305
0.284617850712231
0.2847930060285978
0.2848246367809432
0.2847321844538333
0.2845613403373995
0.2843768801069483
0.2842393960919992
0.2837977813711822
0.2838618471626332
0.2838584173902097
0.2837795848865703
0.2836653189060814
0.2835438099865188
0.283438769291868
0.2833674882201317
0.2833399148105751
0.2833602783205161
0.2834288485048185
0.283540621263348
0.2836880616156229
0.2838567683763876
0.2840242883144291
0.2841548561184987
0.3247567787345704
0.314330956389263
0.3043018757369012
0.2950900549824001
0.2868313306196172
0.2797204956614341
0.2736813373621043
0.268769519819819
0.2648861316804629
0.2620253127226762
0.2601322524016029
0.2593196592390589
0.259516806711393
0.2611988217905644
0.2641738541547571
0.2685683185673538
0.2737300353969296
0.2793663717028998
0.2839275752566231
0.28583241054275
0.2851069050331647
0.2837916565028312
0.2831089088119936
0.2828913389821522
0.282741120716567
0.2824678614360236
0.2821530898248596
0.2818539734025685
0.2816458697742941
0.2815703587224935
0.2816568574724713
0.2819055331139505
0.2822931545547062
0.2827770782042004
0.2833002947368595
0.2838031682610738
0.2842277666565546
0.2845344203005801
0.2846996039434597
0.2847255915494777
0.2846342872638445
0.2844764201435462
0.2843202746745051
0.2842011591195883
0.2837568453953281
0.2837982904360576
0.2837766565916452
0.2836896291577197
0.2835786932191378
0.2834678235334848
0.2833794109572648
0.2833285402211447