/*--------------------------------*- C++ -*----------------------------------*\
| =========                 |                                                 |
| \\      /  F ield         | OpenFOAM: The Open Source CFD Toolbox           |
|  \\    /   O peration     | Version:  2006                                  |
|   \\  /    A nd           | Website:  www.openfoam.com                      |
|    \\/     M anipulation  |                                                 |
\*---------------------------------------------------------------------------*/
FoamFile
{
    version     2.0;
    format      ascii;
    class       surfaceScalarField;
    location    "518";
    object      phi;
}
// * * * * * * * * * * * * * * * * * * * * * * * * * * * * * * * * * * * * * //

dimensions      [0 3 -1 0 0 0 0];
oriented        oriented;


internalField   nonuniform List<scalar> 
56792
(
1.292343175874653e-08
-1.1145103430466e-08
-1.781129169612189e-09
1.410829510986729e-08
-1.186833914166179e-09
-8.777838563529118e-09
-2.335879148186427e-09
4.504580479189642e-08
-3.838975741259114e-08
-8.442145991078881e-09
1.490264085122482e-08
-7.522655856061259e-10
4.935511915801959e-08
-5.499684631486397e-09
-5.958570226073534e-09
-2.859301237733957e-09
-2.991967325644594e-08
-1.07585070684606e-08
8.812867630189486e-08
-7.435351430395504e-08
-2.222239995455184e-08
1.528142164745789e-08
-4.317782612765209e-10
5.231137951192989e-08
-3.644528742588992e-09
9.693488199144488e-08
-1.430949261240174e-08
-2.831594145336851e-09
-3.129766277538385e-09
-2.026690503833264e-08
-1.257459947703381e-08
-5.740458371220242e-08
-2.765536498997828e-08
1.443794113396911e-07
-1.207332826995926e-07
-4.587424717528328e-08
1.523266858078689e-08
7.419316041212055e-11
5.386006992330699e-08
-2.063675491115957e-09
1.030574949313553e-07
-9.696661244585762e-09
1.594522116847447e-07
-2.938640808258415e-08
3.745954869408534e-10
-3.204999326946472e-09
-9.647397636332318e-09
-1.375415346738908e-08
-3.875615809753332e-08
-3.129057598882357e-08
-9.241435114467172e-08
-5.592785989436057e-08
2.161740458083046e-07
-1.792887249805224e-07
-8.276504247117384e-08
1.472805017834634e-08
4.67050906825484e-10
5.397495952705647e-08
-2.370321905968517e-12
1.064974579772156e-07
-5.594327204732226e-09
1.700374665170729e-07
-2.02184378727482e-08
2.39797940895208e-07
-5.301423099281612e-08
3.432494302981298e-09
-3.060957513992516e-09
1.222076567852073e-09
-1.407252498084845e-08
-1.841392260463278e-08
-3.410141803736912e-08
-6.213924293696179e-08
-6.162874176336982e-08
-1.361236184994492e-07
-9.904626379646765e-08
3.052674821166166e-07
-2.511958992273393e-07
-1.36842632217289e-07
1.374996530873715e-08
9.748523405895236e-10
5.256079483581445e-08
1.821422588876201e-09
1.072272194503832e-07
-6.902974751414727e-10
1.763341659923247e-07
-1.197644821664839e-08
2.565447600689429e-07
-3.690138495046645e-08
3.403562150582103e-07
-8.810735707221605e-08
6.139362642813127e-09
-2.287713798721165e-09
1.15787894782071e-08
-1.342296033649202e-08
2.365580415327706e-09
-3.484983274126491e-08
-2.93901661583153e-08
-6.685605295530332e-08
-9.107759659785006e-08
-1.067369148967598e-07
-1.892363650975429e-07
-1.609649472117644e-07
4.107247943082806e-07
-3.353894033701897e-07
-2.1218249951589e-07
1.230943441134736e-08
1.438863469823774e-09
4.956109010272732e-08
3.968751072922415e-09
1.050736687389821e-07
3.910421138847522e-09
1.783309130253973e-07
-2.6497363796536e-09
2.670135554984239e-07
-2.253025434274504e-08
3.655274574057764e-07
-6.201543418602866e-08
4.608049317144805e-07
-1.381907736276302e-07
8.331080317285273e-09
-2.5969715959582e-09
2.074549283967666e-08
-1.08148697854185e-08
2.214116021786465e-08
-3.320424374712501e-08
3.993183300353638e-09
-6.823102226881574e-08
-4.275427067698411e-08
-1.151847897581848e-07
-1.25871209538031e-07
-1.701599181109063e-07
-2.508083229442297e-07
-2.45511765982385e-07
5.267618730561742e-07
-4.269985132939142e-07
-3.119504862182657e-07
1.05012583836854e-08
1.806217822291201e-09
4.501216417305528e-08
5.9847730708806e-09
9.994060606618654e-08
9.095858918130761e-09
1.757754402727133e-07
6.403723581000234e-09
2.712402803326511e-07
-6.839476555273658e-09
3.820165382100155e-07
-3.910034430127931e-08
4.974241461053466e-07
-9.858610411043879e-08
5.95429209005138e-07
-2.068615925718979e-07
9.912127968213811e-09
-1.606015201393671e-09
2.818114734969207e-08
-1.064698238779159e-08
3.964028371923498e-08
-2.761495762949699e-08
3.572860890644947e-08
-6.494559460789052e-08
6.395970239238859e-09
-1.173788663323613e-07
-5.84555433732196e-08
-1.826062798964273e-07
-1.656934869906701e-07
-2.553215619811397e-07
-3.171908235451166e-07
-3.552932697168695e-07
6.457133944585614e-07
-5.199998514218946e-07
-4.376664507671326e-07
8.620429255505985e-09
1.877590136516342e-09
3.922987659118848e-08
7.584808599657248e-09
9.19067304094888e-08
1.401556966320351e-08
1.685412884546327e-07
1.632307663201309e-08
2.689036812596199e-07
8.679233980418249e-09
3.89950271922415e-07
-1.473990114602652e-08
5.226139735841407e-07
-6.435834130361885e-08
6.470946042313234e-07
-1.502128138139195e-07
7.355569431794979e-07
-2.967069737065563e-07
1.086924654428197e-08
-9.64552597238491e-10
3.356565333516286e-08
-7.03525043507127e-09
5.384855976959945e-08
-2.552879450624197e-08
6.38083385130039e-08
-5.506352014047093e-08
5.307546754589603e-08
-1.116313698043895e-07
9.946613249586929e-09
-1.857788439203503e-07
-7.586584900889715e-08
-2.724383001256004e-07
-2.079743261829614e-07
-3.645773131702985e-07
-3.83999245316911e-07
-4.912772166157855e-07
7.642462188003019e-07
-6.120375234081568e-07
-5.898780202466872e-07
7.301231756180182e-09
1.316065372133768e-09
3.320538481528903e-08
7.896181976952705e-09
8.157864653715642e-08
1.790897403459581e-08
1.56791366133478e-07
2.576185463692434e-08
2.598752241964246e-07
2.534468628497536e-08
3.889593980872789e-07
9.609375782788119e-09
5.366238493770034e-07
-2.872135834913167e-08
6.845611535117568e-07
-1.018844472828485e-07
8.052857805873645e-07
-2.199171435198392e-07
8.766668028013424e-07
-4.091297796417586e-07
1.128400588054781e-08
-4.154691173231701e-10
3.685847996221109e-08
-4.270350208245987e-09
6.416721693807635e-08
-1.739816755541742e-08
8.663519016653939e-08
-4.895859353010041e-08
9.438659184771463e-08
-9.573952193731256e-08
7.486785543481257e-08
-1.765585313250071e-07
1.502275500952282e-08
-2.766653989566931e-07
-9.357589389383931e-08
-3.868412455245474e-07
-2.497777065188678e-07
-4.988219485972998e-07
-4.495444343627897e-07
-6.537574592590053e-07
8.834682929633487e-07
-7.041558853860247e-07
-7.691915142688283e-07
7.350254578686181e-09
-5.477701994723999e-11
2.91248394534648e-08
5.390842830616451e-09
7.08383492334676e-08
1.863028955392895e-08
1.415333281989709e-07
3.316238241724198e-08
2.444821287684284e-07
4.115135152898931e-08
3.789647214969927e-07
3.533141477809686e-08
5.39049725821547e-07
7.132050067906694e-09
7.0818786807625e-07
-5.232467229791603e-08
8.584575812333868e-07
-1.550927518538812e-07
9.660948749358041e-07
-3.093255203238257e-07
1.019572152895821e-06
-5.452345022822173e-07
1.134200285817261e-08
-6.19518126442137e-11
3.833315874803771e-08
-1.891638784698646e-09
7.052427945118914e-08
-1.064074037147346e-08
1.032658253598318e-07
-3.407978324423744e-08
1.280265303740187e-07
-8.320968172103458e-08
1.32372776953841e-07
-1.526785830131093e-07
1.012819078707609e-07
-2.628231221265048e-07
2.181942868747378e-08
-3.92059148954318e-07
-1.101222232149229e-07
-5.264991666162111e-07
-2.89967535299488e-07
-6.58419931186315e-07
-5.145587096783503e-07
-8.4334767013215e-07
1.005706204299952e-06
-7.981887624078098e-07
-9.767108803422491e-07
8.786979457339931e-09
-1.442952021352742e-09
2.981123092999201e-08
-7.518801574694804e-10
6.387727302171669e-08
1.234581130162419e-08
1.257825765584355e-07
3.437377791094138e-08
2.243062412822855e-07
5.333372492485637e-08
3.605898824613396e-07
5.952195631796025e-08
5.299229167557532e-07
4.445173823694898e-08
7.175086650749394e-07
-2.237213167663926e-09
8.955690514736711e-07
-8.942135147173313e-08
1.037012397588899e-06
-2.260436598806457e-07
1.129645790108004e-06
-4.193889973589458e-07
1.166958028496963e-06
-7.064878535028852e-07
1.132085226642563e-08
1.689235909115577e-10
3.861481849368624e-08
-3.506928027766234e-10
7.343718013299283e-08
-4.805714120602545e-09
1.135877162892339e-07
-2.09773495000265e-08
1.526292363746193e-07
-5.872974348154259e-08
1.793261148549682e-07
-1.307031024208624e-07
1.778557365630158e-07
-2.287747923771494e-07
1.314162743581328e-07
-3.724240810851492e-07
3.033300004847371e-08
-5.325131163182224e-07
-1.248848357743072e-07
-6.915847502562245e-07
-3.288976096144323e-07
-8.440908744468451e-07
-5.802760772197529e-07
-1.061253725804678e-06
1.132920680942622e-06
-8.955839676408513e-07
-1.214048107291199e-06
1.05627288879932e-08
-1.78216944140622e-09
3.501982894752679e-08
-6.663187281113371e-09
6.608610928847359e-08
-2.972250283669874e-09
1.161758577775965e-07
2.194525627057069e-08
2.038023228663421e-07
5.487032771664027e-08
3.36252132878263e-07
7.766592114928686e-08
5.103407588006765e-07
7.91006371542204e-08
7.126890403970678e-07
4.926382761009318e-08
9.160856928266969e-07
-2.278351617356207e-08
1.090243396224891e-06
-1.426402831857138e-07
1.219295067286959e-06
-3.157087115073692e-07
1.298791762837982e-06
-5.512124380882281e-07
1.32130353756986e-06
-8.948711686210208e-07
1.154109328460496e-08
-3.771430292282705e-10
3.863834841357252e-08
3.674372262116658e-10
7.409132948582119e-08
-1.012248810406784e-09
1.184193921804016e-07
-9.639214143221294e-09
1.68023139220028e-07
-3.638565122413737e-08
2.138463580114568e-07
-9.330435283252358e-08
2.406745556580939e-07
-1.939873635931868e-07
2.290855874648072e-07
-3.260683036234569e-07
1.638706132769988e-07
-5.059651021218062e-07
4.071374447712378e-08
-6.981107945657751e-07
-1.377973829532829e-07
-8.826860696849913e-07
-3.671449780620538e-07
-1.057234346443424e-06
-6.475876545141314e-07
-1.309247201863659e-06
1.266475103311297e-06
-9.972662952245537e-07
-1.483258374665384e-06
1.204577075924763e-08
-1.488532405301299e-09
4.063797663863191e-08
-7.412195393863428e-09
7.639835021687534e-08
-1.698800331954426e-08
1.209864883682735e-07
-7.796619202691194e-09
1.924181424784952e-07
3.332201042654335e-08
3.122290109165614e-07
7.888489707421806e-08
4.839062237701792e-07
1.040955924949429e-07
6.95452805121975e-07
9.633270571113692e-08
9.203011490607247e-07
4.504387894885305e-08
1.125329992269156e-06
-5.789953456099867e-08
1.289937757637886e-06
-2.132771901933471e-07
1.408038091019441e-06
-4.2497430402609e-07
1.476515228729073e-06
-7.064201684288414e-07
1.484456008846349e-06
-1.112853273998193e-06
1.230716767019243e-08
-7.697325270597459e-10
3.948568057313163e-08
-1.462835793790279e-09
7.426217548249247e-08
4.387975094359816e-10
1.196444934249362e-07
-2.245556133438319e-09
1.753844510705514e-07
-1.700179717915772e-08
2.356611097243007e-07
-5.821612482462485e-08
2.872331151032264e-07
-1.399019773367395e-07
3.097968376548098e-07
-2.750615766808356e-07
2.834086305162804e-07
-4.453658381969156e-07
1.982802820446853e-07
-6.635337509505034e-07
5.347094507542326e-08
-8.893783840865454e-07
-1.487556616298362e-07
-1.101077429759755e-06
-4.049890458997599e-07
-1.299837022218428e-06
-7.169511443880336e-07
-1.58955851747092e-06
1.407257303868166e-06
-1.103745408174229e-06
-1.786770499094378e-06
-1.047884733531148e-09
4.476520184232908e-08
-5.625827439571845e-09
8.622659336449331e-08
-1.725320570869186e-08
1.374581694052294e-07
-3.347471033368768e-08
2.011555000495274e-07
-1.654812549476486e-08
3.009695541873345e-07
4.457272564029104e-08
4.591533608607771e-07
1.036302889598574e-07
6.709282288919308e-07
1.28614502113792e-07
9.10611077687326e-07
1.06020227768417e-07
1.142813237033109e-06
2.755508630439233e-08
1.341430021411296e-06
-1.094048254307027e-07
1.496961380750964e-06
-3.021945633978924e-07
1.606592559981817e-06
-5.550579366534326e-07
1.665212791313959e-06
-8.871709277764485e-07
1.657723823756597e-06
-1.363320076239078e-06
1.384541055031346e-08
-1.540709274894908e-09
4.218170531775416e-08
-3.472172882526653e-09
7.600640746465106e-08
-3.465735614963965e-09
1.200932816658858e-07
2.050092849964472e-10
1.774459454704981e-07
-4.315205748801992e-09
2.463413755446234e-07
-2.768422414516136e-08
3.170623252672042e-07
-8.80578656311141e-08
3.703233466059531e-07
-2.004731583495541e-07
3.830129025178659e-07
-3.749066637980618e-07
3.398436621104007e-07
-5.867356053736189e-07
2.355277736479644e-07
-8.455925718388795e-07
6.938614744736551e-08
-1.107519606242327e-06
-1.574128984433845e-07
-1.348654171947839e-06
-4.423670136825353e-07
-1.574429527635389e-06
-7.884702229054788e-07
-1.904832699870985e-06
1.555809322828001e-06
-1.215216249551854e-06
-2.127364757542125e-06
-3.320057167122116e-09
9.241657926642268e-08
-1.182647434686611e-08
1.512924279830961e-07
-3.110259533318219e-08
2.242517365646254e-07
-5.658643362019248e-08
3.152459558219376e-07
-3.084105476638428e-08
4.51374957462293e-07
5.234352437026799e-08
6.502049731767892e-07
1.243450112545729e-07
8.937919957842516e-07
1.454299291438055e-07
1.145829147200436e-06
1.030011029692301e-07
1.374834109830302e-06
-5.851139968808987e-09
1.565966175067675e-06
-1.784272134112161e-07
1.714878787517028e-06
-4.104789491542453e-07
1.81785494172934e-06
-7.077127347312425e-07
1.866714712494744e-06
-1.096160588786019e-06
1.842020354466594e-06
-1.649532122821823e-06
1.625265901489949e-08
-2.41008403439275e-09
4.74863250346008e-08
-6.84955841464378e-09
8.127242467252495e-08
-8.744746416235425e-09
1.230523661321968e-07
-6.658111093936399e-09
1.783359863455513e-07
-4.674525381380394e-10
2.496121069239947e-07
-7.594915985844639e-09
3.320970382003615e-07
-4.271988319991312e-08
4.098397089546964e-07
-1.275872447804698e-07
4.58709547920217e-07
-2.761915299095149e-07
4.586240792435967e-07
-4.93874709409805e-07
3.994946940168599e-07
-7.505967137176903e-07
2.77028083314961e-07
-1.05323558968167e-06
8.941929849535627e-08
-1.354351287518851e-06
-1.63172551724451e-07
-1.627850335048838e-06
-4.789255911778913e-07
-1.883975687976338e-06
-8.619633259583586e-07
-2.258083236190201e-06
1.712409458611326e-06
-1.33161737146034e-06
-2.508156911502506e-06
-5.253725751066798e-09
1.584045449532133e-07
-1.895120519381011e-08
2.409203991151588e-07
-4.778686761887461e-08
3.44380568827549e-07
-8.573918081721682e-08
4.73049538522263e-07
-5.253012557458007e-08
6.506374526719946e-07
5.19022016038802e-08
8.832869883131193e-07
1.348443045959491e-07
1.142731826506547e-06
1.485227902183582e-07
1.394286252483353e-06
8.354768104222013e-08
1.616951611892081e-06
-5.684055248548044e-08
1.802561503434943e-06
-2.661147580827944e-07
1.947024980310584e-06
-5.396459371544778e-07
2.044171054238446e-06
-8.851712319949742e-07
2.082427302805498e-06
-1.336563728497902e-06
2.037964917001203e-06
-1.975087778772657e-06
1.945582521248467e-08
-3.202946642201733e-09
5.572230436906431e-08
-1.065072934078541e-08
9.150035984119169e-08
-1.708193720795277e-08
1.316376182157754e-07
-1.733732679378439e-08
1.828683321829442e-07
-1.142476669137155e-08
2.511517088525406e-07
-1.812713631130306e-09
3.371297216710191e-07
-1.263532531812328e-08
4.304948614934434e-07
-6.337716439633438e-08
5.09186650109555e-07
-1.780718746383803e-07
5.499330857691121e-07
-3.675300359097453e-07
5.377489368365634e-07
-6.322377203763036e-07
4.643185262160205e-07
-9.377803745950844e-07
3.243291268295057e-07
-1.288147018490322e-06
1.146868790486319e-07
-1.632210251756626e-06
-1.652079941514018e-07
-1.941568253881416e-06
-5.140596509796147e-07
-2.23188565781342e-06
-9.369993323633217e-07
-2.652701201983042e-06
1.877114982775417e-06
-1.452656758731453e-06
-2.932616133746656e-06
-4.606733262948429e-09
2.46959230732691e-07
-2.50029892203234e-08
3.612267423792894e-07
-6.465123616987809e-08
5.061821546453455e-07
-1.188876775337735e-07
6.814324564453375e-07
-8.3341433050488e-08
8.96896292531689e-07
3.828706117624266e-08
1.148591072494501e-06
1.289785578201698e-07
1.409756026451073e-06
1.330508467387067e-07
1.655445100855439e-06
4.505180636377025e-08
1.87268443271566e-06
-1.269645136601244e-07
2.054957947503219e-06
-3.740595088386564e-07
2.1962409819697e-06
-6.917157525057134e-07
2.287466922818034e-06
-1.090220092254952e-06
2.313445444862394e-06
-1.612044371304598e-06
2.245942356705522e-06
-2.343916047997712e-06
2.314109636239019e-08
-3.434702648221182e-09
6.662926686557051e-08
-1.410969118263041e-08
1.072968002859762e-07
-2.645234796818469e-08
1.481480523321652e-07
-3.359712989055891e-08
1.956132420653909e-07
-3.008943235087993e-08
2.57622678267206e-07
-1.810941331146564e-08
3.395840685266175e-07
-4.093205294651156e-09
4.380689611186128e-07
-2.021718172650313e-08
5.366097873503216e-07
-9.080073810119931e-08
6.119471148829835e-07
-2.400943693813977e-07
6.449083110997405e-07
-4.74697953933927e-07
6.227464373485436e-07
-7.907681474645689e-07
5.364018775304446e-07
-1.149806384438389e-06
3.79049706118749e-07
-1.552510440414333e-06
1.464765533402183e-07
-1.943894359067692e-06
-1.624692892029371e-07
-2.293160169981381e-06
-5.469268306062872e-07
-2.621958282296682e-06
-1.012908283277714e-06
-3.092448165878607e-06
2.049779198420301e-06
-1.577816640437718e-06
-3.404578655073304e-06
1.811228528461019e-09
3.630013136238406e-07
-2.679273179260901e-08
5.187524123174244e-07
-7.723777877800475e-08
7.153209861043506e-07
-1.527941165882899e-07
9.376661784525195e-07
-1.241220602280297e-07
1.179540736426478e-06
7.330576558259588e-09
1.437200424498482e-06
1.015311058432239e-07
1.693260944938449e-06
9.523171292251523e-08
1.932585935278304e-06
-1.485039575828317e-08
2.146165886378996e-06
-2.181756697236698e-07
2.326520703651585e-06
-5.043404710352698e-07
2.464975496253317e-06
-8.69222790292447e-07
2.54937661565262e-06
-1.326151338436947e-06
2.560623379605888e-06
-1.926722940446641e-06
2.46613580132727e-06
-2.760272785585369e-06
2.649119779299895e-08
-3.610897764266677e-09
7.91417222561534e-08
-1.556819016097793e-08
1.281486520166092e-07
-3.496105531726985e-08
1.735426105157084e-07
-5.185204510407179e-08
2.199356160529582e-07
-5.792432117016238e-08
2.753592517623462e-07
-4.783396543390157e-08
3.482545989048198e-07
-2.696845772960544e-08
4.417584495324918e-07
-7.640778365068167e-09
5.475344770801934e-07
-3.114693015851893e-08
6.467470567846163e-07
-1.256024276634645e-07
7.186617324598276e-07
-3.138512425543967e-07
7.462199653749635e-07
-5.981919969534196e-07
7.161622424029452e-07
-9.705790335548461e-07
6.178334504646124e-07
-1.388522412246934e-06
4.429235788550484e-07
-1.848958808055323e-06
1.862729083622977e-07
-2.292636139755603e-06
-1.536763853223326e-07
-2.686410851253175e-06
-5.76444535254476e-07
-3.058427045006514e-06
-1.088775970441003e-06
-3.581489293694077e-06
2.23005222555412e-06
-1.706344606577902e-06
-3.928287129643147e-06
1.838754843088984e-08
5.117107261872807e-07
-1.976493772559815e-08
7.182236955174214e-07
-8.015892449460092e-08
9.691224663366525e-07
-1.842621357855981e-07
1.230328751327732e-06
-1.74922155002568e-07
1.489102188367165e-06
-4.457430437408546e-08
1.746748802107542e-06
4.803869420808823e-08
1.996208564042869e-06
3.160792236583319e-08
2.230205490002927e-06
-9.889199695714648e-08
2.441363453351679e-06
-3.330188280677891e-07
2.620282250099427e-06
-6.596559930619045e-07
2.755430615899883e-06
-1.075277358939211e-06
2.831331632183959e-06
-1.596866760640806e-06
2.824618187290523e-06
-2.285206190202054e-06
2.698543867010307e-06
-3.228765233860067e-06
2.80139835577555e-08
-1.526365067293413e-09
9.049313884034345e-08
-1.536026158016881e-08
1.520176984224902e-07
-3.902223802741882e-08
2.069780508001172e-07
-6.839626267612429e-08
2.572185391872684e-07
-8.914055378730959e-08
3.089974406150128e-07
-9.156753274382996e-08
3.715078950649234e-07
-7.109367110704817e-08
4.526278384018743e-07
-3.799639728866769e-08
5.527652305463931e-07
-1.27726055630755e-08
6.61495455475793e-07
-4.590052200629585e-08
7.610033136156063e-07
-1.679439626382818e-07
8.319548324843526e-07
-3.995917737469919e-07
8.567609915470801e-07
-7.38793794014806e-07
8.205007287227413e-07
-1.17331068252171e-06
7.107660228038112e-07
-1.656344262288415e-06
5.178560804721966e-07
-2.180542249532602e-06
2.357859752644954e-07
-2.682098111348454e-06
-1.373029262910533e-07
-3.12555397657203e-06
-6.012753266333936e-07
-3.545927022748663e-06
-1.16342773579026e-06
-4.124405244433858e-06
2.417371441542038e-06
-1.837235174257782e-06
-4.508423274168419e-06
5.079254691284843e-08
6.971595493236609e-07
1.283100055916236e-09
9.584550609070972e-07
-6.950409482170979e-08
1.257052456442058e-06
-2.109990891420789e-07
1.550140146987624e-06
-2.359659262774895e-07
1.823033062811893e-06
-1.208634647778865e-07
2.079862322484418e-06
-3.561665274103141e-08
2.32334673262698e-06
-6.153596775990967e-08
2.552927772775873e-06
-2.104566752305221e-07
2.762016821405693e-06
-4.74756252909992e-07
2.939098980998623e-06
-8.433237750588516e-07
3.069681759035413e-06
-1.313626891109528e-06
3.134622538933159e-06
-1.906870021322727e-06
3.105920551919147e-06
-2.69258136325307e-06
2.942989950126475e-06
-3.754383860037094e-06
2.600307682414792e-08
1.983816771051472e-09
9.571330108780923e-08
-6.752821195734051e-09
1.736479877242692e-07
-3.742386994407997e-08
2.451757281929697e-07
-7.685120363052027e-08
3.061877081633311e-07
-1.173647702239849e-07
3.603836070094179e-07
-1.40531919749863e-07
4.15386525486711e-07
-1.354504352200616e-07
4.812275134767324e-07
-9.970027845165094e-08
5.655916777963407e-07
-5.093069140517351e-08
6.684173706728722e-07
-1.961554456281716e-08
7.796585186270049e-07
-6.455856869665716e-08
8.818864510985197e-07
-2.178770379874923e-07
9.549290469850875e-07
-4.977614294321152e-07
9.793723370460411e-07
-8.976816531942243e-07
9.382879044685041e-07
-1.400857315742071e-06
8.175002788834009e-07
-1.955940501421662e-06
6.059740241743414e-07
-2.55073174124904e-06
2.969807768889257e-07
-3.116381430410641e-06
-1.115536481096589e-07
-3.615275830175734e-06
-6.198042038666523e-07
-4.08955471406387e-06
-1.235404223218103e-06
-4.726236885482787e-06
2.610944382518027e-06
-1.969203069106217e-06
-5.150165333965364e-06
1.053875796379892e-07
9.196033680875608e-07
4.01230721893145e-08
1.231306393418089e-06
-4.377194570755679e-08
1.570446945172371e-06
-2.313122163079766e-07
1.895090952598708e-06
-3.0803224510803e-07
2.183720498398058e-06
-2.247233088453831e-07
2.441230329569613e-06
-1.535037653872602e-07
2.679824994137727e-06
-1.884339455527354e-07
2.90528324552523e-06
-3.53724939056687e-07
3.111780829233658e-06
-6.474382377080514e-07
3.285803902049726e-06
-1.059452837901957e-06
3.409772988801551e-06
-1.588778279492836e-06
3.460448975190812e-06
-2.261404206402697e-06
3.404883703296355e-06
-3.154476330908502e-06
3.199128126058896e-06
-4.342568355415954e-06
2.00665007265092e-08
5.966249155892482e-09
8.90476979728537e-08
8.602602534196492e-09
1.836875581168465e-07
-1.679871295669485e-08
2.797731034675152e-07
-7.24109037427081e-08
3.62008302741362e-07
-1.323031226172275e-07
4.27666060377014e-07
-1.846470061041663e-07
4.821614062449516e-07
-2.073117261412767e-07
5.350599385133412e-07
-1.89286993197355e-07
5.988012420494174e-07
-1.329140100883205e-07
6.829204488199093e-07
-6.552460419886007e-08
7.881996092155449e-07
-2.811010301446996e-08
9.043321032955551e-07
-8.700776050839075e-08
1.012563131329893e-06
-2.755109209627731e-07
1.090657298488224e-06
-6.090506669781817e-07
1.11688589751049e-06
-1.076279724666723e-06
1.072175977150139e-06
-1.655578241866839e-06
9.405550952669103e-07
-2.290514979521383e-06
7.096686313176616e-07
-2.963419617122464e-06
3.721078853133745e-07
-3.600042619042655e-06
-7.433681939650368e-08
-4.160744739156868e-06
-6.301093572617513e-07
-4.694848475509605e-06
-1.302929478605399e-06
-5.392509988783613e-06
2.809725624718858e-06
-2.100648116828301e-06
-5.859242689441191e-06
1.873931958902808e-07
1.173588570731569e-06
9.782785655650824e-08
1.528378263340994e-06
-1.7100058644976e-09
1.907763452130638e-06
-2.439939697621197e-07
2.267761895679785e-06
-3.920767854972668e-07
2.575457349667543e-06
-3.589542412540284e-07
2.836031764252654e-06
-3.097113608974216e-07
3.070776053342288e-06
-3.539291270810306e-07
3.291786914106463e-06
-5.337312861018892e-07
3.494393932137121e-06
-8.560309713860476e-07
3.663339862766867e-06
-1.313018107528644e-06
3.777801811558049e-06
-1.906131223303375e-06
3.809971938119532e-06
-2.666490822192823e-06
3.721758337573908e-06
-3.677105744944017e-06
3.466448627371454e-06
-4.999291446247252e-06
1.282144171468297e-08
7.617041538724999e-09
6.897972018577737e-08
2.608551856814121e-08
1.712110981140271e-07
2.103124827645895e-08
2.96001127980859e-07
-3.303385825886709e-08
4.125439607521202e-07
-1.233302769928859e-07
5.04115671042164e-07
-2.084376085110144e-07
5.692370226197323e-07
-2.71721898341037e-07
6.167948630652117e-07
-2.890505827195148e-07
6.614475993559776e-07
-2.519360960881188e-07
7.200577371961269e-07
-1.700561691679807e-07
8.041084669021363e-07
-8.148463893398021e-08
9.142379878965947e-07
-3.797234885719717e-08
1.038621098130958e-06
-1.13067420715064e-07
1.156214771846865e-06
-3.410697292167875e-07
1.242186777528701e-06
-7.343519973852121e-07
1.272240848836306e-06
-1.276358477776901e-06
1.225032080102544e-06
-1.940066105329016e-06
1.082723998313802e-06
-2.663534089056601e-06
8.316341922672038e-07
-3.422947336522499e-06
4.637354688463239e-07
-4.138114558525896e-06
-2.323219835044491e-08
-4.767622069019138e-06
-6.299263581990737e-07
-5.367855127233942e-06
-1.36387037665175e-06
-6.129288553725558e-06
3.012386575773269e-06
-2.229609257010108e-06
-6.642020679039375e-06
2.98766202649922e-07
1.45110889320206e-06
1.750905374227437e-07
1.847214905434305e-06
5.882905477318175e-08
2.272087305448088e-06
-2.483228091811527e-07
2.672275468348024e-06
-4.889013891382887e-07
3.002890631931458e-06
-5.258140091808142e-07
3.269367119434413e-06
-5.083054325690999e-07
3.501275351133497e-06
-5.63418082959903e-07
3.717073456186975e-06
-7.564126406645314e-07
3.913825736995159e-06
-1.106516794418917e-06
4.074879537441787e-06
-1.61010149157222e-06
4.176005449665006e-06
-2.272165696014494e-06
4.184378232114621e-06
-3.129115432538603e-06
4.0567379235419e-06
-4.267396424911823e-06
3.744282865566282e-06
-5.731188461159772e-06
6.564305278416372e-09
6.112687550933346e-09
4.389769891130884e-08
3.328983127950963e-08
1.329942645240979e-07
6.435492585429034e-08
2.764338276336342e-07
4.054675983777036e-08
4.365377838003225e-07
-5.703420734125277e-08
5.732609567679708e-07
-1.928067244052377e-07
6.677667927696961e-07
-3.067052460700206e-07
7.230888202893115e-07
-3.780157370516858e-07
7.567489931170237e-07
-3.843551596833139e-07
7.905807459676314e-07
-3.224618238192801e-07
8.447494642828297e-07
-2.106993104214088e-07
9.312022103273479e-07
-9.850117289797206e-08
1.049498721390271e-06
-4.882861096202534e-08
1.185688150086557e-06
-1.425435283339525e-07
1.315992473165701e-06
-4.148751338480914e-07
1.41265667312978e-06
-8.747713033632554e-07
1.44858729074335e-06
-1.499912343481452e-06
1.400007827642959e-06
-2.257383974527553e-06
1.247122243335793e-06
-3.079023490601116e-06
9.749045843979673e-07
-3.934116192036328e-06
5.747834259315822e-07
-4.736129888004531e-06
4.454609003519092e-08
-5.442096081909694e-06
-6.166046493853502e-07
-6.115119478534928e-06
-1.415684132155103e-06
-6.943213548786885e-06
3.217273872109301e-06
-2.353702221524629e-06
-7.505592139206553e-06
4.389353750130782e-07
1.74752846585481e-06
2.74767981806663e-07
2.190556464796895e-06
1.403564485256893e-07
2.667948889839739e-06
-2.440033746789942e-07
3.112893987606471e-06
-5.989065430616259e-07
3.47045353237462e-06
-7.269038624923011e-07
3.746101500733785e-06
-7.531320588847245e-07
3.976382699646925e-06
-8.22729601343468e-07
4.18600173620171e-06
-1.028588828367781e-06
4.374395569951849e-06
-1.406035472432926e-06
4.523936102354216e-06
-1.9580300740713e-06
4.60685484998648e-06
-2.694642981032296e-06
4.58496162532163e-06
-3.65733717623109e-06
4.410013818537851e-06
-4.933127129932686e-06
4.031803631579388e-06
-6.545718339939234e-06
-8.901504389804622e-10
1.004762738109596e-08
2.145391421549572e-08
2.836810262935423e-08
8.429737984239199e-08
8.261131773760538e-08
2.153095474379025e-07
1.255362539770446e-07
4.086119220817017e-07
6.842412337792336e-08
6.065870876943273e-07
-9.036749021516161e-08
7.567974448032432e-07
-2.821038413430995e-07
8.430571609161644e-07
-4.264764585651012e-07
8.808286223678057e-07
-5.020947060205186e-07
8.98475435323785e-07
-4.922521972284446e-07
9.227071911556077e-07
-4.004210577271685e-07
9.749897008794973e-07
-2.544903328857226e-07
1.067014700738572e-06
-1.160408216357874e-07
1.197016645800633e-06
-6.01299385484013e-08
1.348664718828344e-06
-1.752169828943041e-07
1.495127096031441e-06
-4.973468257186887e-07
1.605411846476454e-06
-1.031595724283727e-06
1.649367808951236e-06
-1.749284797900001e-06
1.600595358331506e-06
-2.610860148932281e-06
1.437228384223964e-06
-3.541318709843308e-06
1.142889341878122e-06
-4.502223667873882e-06
7.085607116358345e-07
-5.400144205281663e-06
1.321934324916273e-07
-6.190894342102416e-06
-5.870532176483747e-07
-6.943753433768414e-06
-1.455348281217388e-06
-7.841568306430229e-06
3.419145856606735e-06
-2.468867092599113e-06
-8.455871475237454e-06
6.082444690499152e-07
2.063485848022265e-06
4.018352023288835e-07
2.563202965828789e-06
2.450952744565021e-07
3.09986384856841e-06
-2.309751968073357e-07
3.593550233488594e-06
-7.220086730827353e-07
3.982176345837694e-06
-9.629792580687548e-07
4.270803015438125e-06
-1.047555112826533e-06
4.501142838168945e-06
-1.137871147640163e-06
4.703699160549208e-06
-1.357894307389021e-06
4.880851338246129e-06
-1.762950510049503e-06
5.01445797027868e-06
-2.365637920953542e-06
5.073152096056457e-06
-3.182834371297811e-06
5.013214622403501e-06
-4.260541834948922e-06
4.781831220166333e-06
-5.683156155042901e-06
4.3123218927423e-06
-7.438895135173913e-06
-1.257376092541065e-08
8.830792877481884e-09
-5.080809446438376e-09
4.047904956091596e-08
3.952902683685372e-08
7.291593674866162e-08
1.358583256889632e-07
1.626603339867393e-07
3.192838776745141e-07
2.149187100915054e-07
5.695229938098096e-07
1.054377313629948e-07
8.00578625917945e-07
-1.341534933756054e-07
9.515662165961791e-07