/*--------------------------------*- C++ -*----------------------------------*\
| =========                 |                                                 |
| \\      /  F ield         | OpenFOAM: The Open Source CFD Toolbox           |
|  \\    /   O peration     | Version:  2006                                  |
|   \\  /    A nd           | Website:  www.openfoam.com                      |
|    \\/     M anipulation  |                                                 |
\*---------------------------------------------------------------------------*/
FoamFile
{
    version     2.0;
    format      ascii;
    class       volVectorField;
    location    "518";
    object      U;
}
// * * * * * * * * * * * * * * * * * * * * * * * * * * * * * * * * * * * * * //

dimensions      [0 1 -1 0 0 0 0];


internalField   nonuniform List<vector> 
28643
(
(-0.001419201505304118 -0.000464140771251503 0)
(-0.001542220131776656 -0.0005855783779845092 1.214379007671827e-24)
(-0.001214256949412726 -0.0003610680164650069 1.136589589023573e-24)
(-0.004380578299660552 -0.00142991757477129 -1.29951402004067e-19)
(-0.001618818843079525 -0.0007098337619728093 7.984895140400401e-20)
(-0.004773634516931617 -0.001811316146505506 0)
(-0.0009047260673486229 -0.0002586097696796017 -2.152400636663947e-24)
(-0.003731800328561144 -0.001106312207185685 0)
(-0.007624473191224113 -0.002484105772818434 1.453216982772226e-19)
(-0.001633601200452043 -0.0008244353665064065 1.222675381726747e-24)
(-0.005018658487621193 -0.002199772010888665 4.041568694968487e-24)
(-0.008335608996911801 -0.003160547541608211 -1.481337970296416e-19)
(-0.0005370118583120426 -0.0001483685043644191 2.058069682397553e-24)
(-0.002774364016635406 -0.0007902793892390354 0)
(-0.006462537811475022 -0.001910481543818178 0)
(-0.01113990426319752 -0.003624173515754954 0)
(-0.001591238867148849 -0.0009250173800138042 -1.230330846804328e-24)
(-0.005074810831499215 -0.002560660695171882 -1.331745121637438e-19)
(-0.008778701589241917 -0.003846217396120714 -4.543701389666103e-24)
(-0.0122199724697145 -0.004629841221917206 1.65354735465312e-19)
(-0.000144758452390122 -3.83880264265655e-05 7.038783453609041e-27)
(-0.001647816963854426 -0.0004526841650757483 0)
(-0.004789886429063096 -0.001360096530680723 0)
(-0.009394881201952476 -0.002770683443350054 -4.594240045066989e-24)
(-0.01489837099459133 -0.004840418312373478 0)
(-0.001487803626745326 -0.001001936517791672 1.625506786761675e-19)
(-0.004954758996170337 -0.002880316042472827 4.095337749753174e-24)
(-0.008895516221451271 -0.004487540262289452 1.499216387708213e-19)
(-0.01289393761239986 -0.005646821819095988 1.665317166700115e-19)
(-0.01640188528821704 -0.006209125701204193 0)
(0.0002451112446414418 6.313619211032212e-05 -9.415188171824807e-25)
(-0.0004482031758326517 -0.0001166072847951754 1.05498494656514e-19)
(-0.00284188178604317 -0.0007764001972240283 0)
(-0.006939951060777385 -0.001963787844974014 8.6219636402822e-24)
(-0.01250107601859232 -0.00367801774925607 0)
(-0.01881117848371079 -0.006102610067232358 0)
(-0.001323739585561525 -0.001045623222403611 1.645419956163011e-19)
(-0.004646517733148271 -0.003129800115862609 -4.141567258313792e-24)
(-0.008705970145022118 -0.005060854975514083 0)
(-0.01309422431536939 -0.006604475979540552 1.678443935510243e-19)
(-0.01734479306728693 -0.007592553639906753 -1.840865875741373e-19)
(-0.02079427039967654 -0.007864259062266281 0)
(0.0006050378838217001 0.0001493398133366389 -5.896404124418399e-20)
(0.0007435828232991122 0.0001933106181508828 -1.537862339885414e-24)
(-0.0007713556877354365 -0.0001965118500148977 1.168089715190961e-19)
(-0.004107959002140026 -0.001115231203617658 1.348215154218877e-19)
(-0.009199759346132161 -0.002593191386456483 1.54218084744183e-19)
(-0.01570449865892612 -0.004608306314110276 0)
(-0.02264415288713838 -0.007332423675276201 1.835380740012322e-19)
(-0.00110212742951284 -0.001044472067283736 2.557062391407022e-24)
(-0.004150206081461391 -0.00327989173856461 -5.509684218284976e-19)
(-0.008189473079055945 -0.005517247693646077 -3.066289970395723e-19)
(-0.01284693404774259 -0.007468251784648878 2.071799491009732e-23)
(-0.01765750339405339 -0.008904470657956704 -1.860235870195235e-19)
(-0.02205326039227007 -0.009648386307518101 -1.20430658126523e-23)
(-0.02515318845364183 -0.009500938937138369 2.340613322158859e-23)
(0.0009120185197872187 0.0002159434625792311 0)
(0.001844227072962821 0.0004563877821076555 1.926901784979455e-19)
(0.001284468324961663 0.0003376333230414444 -1.115911475988466e-19)
(-0.001103448813888688 -0.000274133235951124 -1.2886989357063e-19)
(-0.005425069624399261 -0.001462287393677907 -2.117096205798867e-26)
(-0.01150884381609809 -0.003229572734935081 -1.626052715956345e-19)
(-0.01881401072359805 -0.005502883350177033 0)
(-0.02599682645832537 -0.00839708633154625 -3.19335367326795e-19)
(-0.0008343803209777774 -0.000988185430393528 -2.630582602830664e-24)
(-0.003473836083394394 -0.003295299407586738 0)
(-0.00734420911916682 -0.005806741156297947 8.621429625717866e-27)
(-0.01212248480821763 -0.008168922465075999 -2.104037728889105e-23)
(-0.01737076419652178 -0.01009854882993967 -1.150863702499885e-23)
(-0.02251972603234032 -0.01135384262528793 -2.006693036436225e-19)
(-0.02678796992548153 -0.0117114722404633 -2.412407462399299e-23)
(-0.02903736034335756 -0.01094970678876466 0)
(0.001148126159797657 0.0002599782864032333 -1.076711060081639e-19)
(0.002784594143883323 0.0006599491067305085 1.403052621863385e-24)
(0.003183489006901075 0.0007908174286991664 -5.512774204924683e-26)
(0.001878168073844298 0.0004997520751323821 3.812868407012689e-24)
(-0.001428380330847032 -0.0003441525254583898 -4.286257518723138e-24)
(-0.006750382323803507 -0.001804292940287329 -1.546572584672125e-19)
(-0.0137257493213642 -0.003830541922942137 0)
(-0.02151049226706801 -0.006265206794669037 9.033253386465485e-24)
(-0.02855186355082236 -0.009191916432432159 1.256422891987172e-19)
(-0.0005461205844143767 -0.0008757775529662278 3.597542501659678e-19)
(-0.00264973779452184 -0.003144094882624854 0)
(-0.006181572397519941 -0.005869157426533456 3.215443891961528e-19)
(-0.01091551631430912 -0.008634801527972438 3.524397934228397e-19)
(-0.01644561408250499 -0.01108523662669115 3.404309409633134e-27)
(-0.0222260952436082 -0.01292164152298582 0)
(-0.02747275528632772 -0.01384646811344261 2.036151378538923e-19)
(-0.03110194102183931 -0.01358395061202434 1.776100613236136e-19)
(-0.03206171757221485 -0.01206329843886213 3.281129688648787e-23)
(0.001306600946064431 0.0002824207685701467 1.028862417622927e-19)
(0.003510584949642722 0.000795017336634489 -2.682856528995478e-24)
(0.004808120140867578 0.001141893770730907 1.551300219034481e-24)
(0.004633362506002102 0.001156113554714049 -3.659403320850945e-24)
(0.002535995188497759 0.0006834845483574178 1.341381196341668e-19)
(-0.001723774277329832 -0.0003992373020996427 0)
(-0.007993860178757565 -0.002114414827220392 -1.503579628702728e-19)
(-0.01562200629279927 -0.004329054829502063 -1.381824481738278e-19)
(-0.02354431476926915 -0.006820618826397248 1.424897783858989e-23)
(-0.03031325101866924 -0.009717876730433717 -9.500432406971521e-20)
(-0.0002799186880283145 -0.0007384826979618147 9.556395741338117e-20)
(-0.001752419223900023 -0.002821166407841429 -4.591040559911298e-24)
(-0.004752595285162507 -0.005649216454300365 0)
(-0.009239257530306575 -0.008780085880311921 -3.64100193186548e-19)
(-0.01487134928091351 -0.01177054707665132 3.942216304254414e-19)
(-0.02112297556416304 -0.01424218229341953 0)
(-0.02723476295641658 -0.01583323392039013 2.567172096859335e-23)
(-0.03208724325530706 -0.01616397410832855 0)
(-0.03455270371199668 -0.01507034518805617 -1.43800054458437e-19)
(-0.03419135234893656 -0.01282812573318985 0)
(0.001390035692483651 0.0002861166964550919 -9.834739526908984e-20)
(0.004001646843250032 0.0008646486121738298 1.212043962152797e-24)
(0.006066193120935296 0.001375302198325403 -1.484088661150601e-24)
(0.006994133320800002 0.00166505326182236 3.419552427010804e-24)
(0.006201592852483537 0.001554967425187251 -2.561796579785697e-19)
(0.003260234917521014 0.0008906500998552778 0)
(-0.001956988576286145 -0.0004288361876972229 1.750871322320671e-23)
(-0.009020129636503312 -0.002353560881402185 1.3019267239312e-19)
(-0.01702442096874262 -0.004675395814248243 3.447083529178329e-25)
(-0.02492294429728115 -0.007171451160821783 0)
(-0.03146860871296404 -0.01003574534082023 5.333695697387477e-25)
(-5.967581794603317e-05 -0.0006580145897826803 -2.550053674880211e-20)
(-0.0009085736876039118 -0.002416568773630161 -1.662194412704389e-19)
(-0.003178147335738686 -0.005134928300110875 -3.579396253698168e-19)
(-0.007161061160260919 -0.008525046251226099 1.16645752255825e-23)
(-0.0126612416994443 -0.012042960491925 0)
(-0.0191917852383961 -0.01519896046605227 -4.329775036765603e-19)
(-0.02601077765361911 -0.01754264043689895 -2.665044236390033e-23)
(-0.03200320787502536 -0.01860309820066609 0)
(-0.0358840420933444 -0.01806285727824874 -1.543135363291653e-19)
(-0.03703997769249191 -0.01612591987849422 0)
(-0.03562248651706001 -0.01331829940544601 0)
(0.001414992152090936 0.0002766212529695021 9.406167451831836e-20)
(0.004265505036856899 0.0008774493112318866 -1.605252633481516e-19)
(0.006922488550107748 0.001496583358009764 -1.85586783725768e-19)
(0.008828406755213559 0.002004291242496222 -6.535029637936689e-24)
(0.009348564641970675 0.002231406893600698 -1.223234698010283e-19)
(0.007874031859442174 0.00198493373007812 1.396213182096365e-25)
(0.004027356209817312 0.001116894975877852 -8.394244084016636e-24)
(-0.002091891487194777 -0.0004217575363520257 -1.240787257009982e-19)
(-0.009735699020261062 -0.002495799781427766 -6.237180299574245e-24)
(-0.01794405840952424 -0.004873233389283031 8.246490695751977e-20)
(-0.02580018614493397 -0.007362993839779038 6.752307226246463e-20)
(-0.03219828756345706 -0.01020373129883059 5.712830085960225e-20)
(0.0001791357426136859 -0.0006998912144324624 -4.006354581305828e-24)
(-0.0001933973992149706 -0.002172806957736319 4.500353184199103e-20)
(-0.001668490772893468 -0.004471498669389855 -5.974344218078943e-24)
(-0.004844589720647945 -0.007848722003593558 -4.112146140774492e-19)
(-0.009895913891543765 -0.0117981553154411 -4.320556088491389e-19)
(-0.01644319631977468 -0.01565523569339666 0)
(-0.02376955352020879 -0.01883561038618213 -2.782996091812179e-23)
(-0.03076553436565704 -0.02075417508897429 -2.54712735683935e-23)
(-0.0360398861572546 -0.02094365984830778 0)
(-0.038689526800227 -0.01945429789516946 2.397198007761251e-19)
(-0.03874424274510701 -0.01682929968851142 -8.455420451444647e-20)
(-0.03656057168894163 -0.01361127323875401 -1.50185020027922e-23)
(0.001410510125874893 0.0002611083648139925 -4.434475872189102e-28)
(0.004352222523997144 0.0008502560534832451 -3.069910897669017e-19)
(0.007389883184115934 0.001520425505001234 1.77298292504275e-19)
(0.01008502146578339 0.002181903645362959 6.240303972913245e-24)
(0.01180345502020642 0.002683808269311146 -3.56246036881796e-24)
(0.01184600621937331 0.002835780284761466 2.58692058460313e-19)
(0.00957982850571517 0.002430012173562002 1.322812366029468e-19)
(0.00477632746266119 0.001348033252655851 7.29138066953193e-24)
(-0.002112519144024031 -0.0003737190216478736 1.94570434825718e-19)
(-0.01015536509340977 -0.002545788109392535 0)
(-0.01849300135548841 -0.004954435652290005 0)
(-0.02632255982606682 -0.007437983106063764 -5.321843836662944e-20)
(-0.03262424358512311 -0.01026087706562041 4.656801239795478e-20)
(0.0005117080365195821 -0.0007757513247548713 3.100778894477975e-24)
(0.0005821634772208062 -0.00228620731396591 1.137947024889668e-23)
(-0.0003545693927941766 -0.004061228208252283 9.828637552755947e-24)
(-0.002579191635195669 -0.006946633585505272 1.387270359107722e-23)
(-0.006776291508352025 -0.01100495702965861 4.683209932163981e-19)
(-0.01296675689505822 -0.01548286945486624 9.619104244116652e-19)
(-0.02051400799596366 -0.01955066232742896 -7.044789383548943e-27)
(-0.02832139251091898 -0.02245607172693345 -4.445443138579931e-19)
(-0.03490857898545418 -0.02355253056785855 -3.60408225464301e-19)
(-0.03910091336882887 -0.02271150106701804 0)
(-0.04064762424278355 -0.02041018521321653 -1.844973778310722e-19)
(-0.03988725905699201 -0.01727725369198806 -1.554168399792219e-23)
(-0.03714902710700258 -0.01376083804341193 1.2241984421492e-23)
(0.001416374068043196 0.0002475598965092617 -3.292123666680084e-25)
(0.004350117959062704 0.000804864451549749 -1.4688721654035e-19)
(0.007553637548733008 0.001475638309951063 1.694782401380894e-19)
(0.0107815679005537 0.002218940559080191 1.953141459275939e-19)
(0.01349736350859291 0.002922611349067744 2.23312882824981e-19)
(0.01496083852256305 0.003407554971475131 -3.786378139492817e-24)
(0.01438102013349834 0.003454417372789982 -1.275330367271544e-19)
(0.01117210659097556 0.002855374538211883 0)
(0.005446591948402145 0.001568634881725867 9.400000216492186e-20)
(-0.002029475928090146 -0.0002881171144880484 -1.468884518498883e-19)
(-0.0103458200468305 -0.002521805930521703 -5.894140543603685e-20)
(-0.01877538538326062 -0.004948073539295384 1.211713380775509e-23)
(-0.02658852458808552 -0.007424763840613777 4.342651032250792e-20)
(-0.03282173446562837 -0.01023082017853512 -3.923123458012682e-20)
(0.000878285837515727 -0.0007806426198074177 0)
(0.001636224553427226 -0.002486501850384428 -1.924544327147967e-27)
(0.001074367743327166 -0.00423196300469245 -3.41011786389847e-24)
(-0.0005497836628792209 -0.006370021815792466 -6.292896548307829e-20)
(-0.003661434224288442 -0.009902063882677704 2.610005080016287e-19)
(-0.008992420708966343 -0.01463992181764981 0)
(-0.01633551332709284 -0.01953658341773204 -1.035239234553409e-18)
(-0.0246551316781849 -0.02352206381318634 -2.919298746433888e-23)
(-0.03240684693466363 -0.02571052974696382 1.909930480873154e-24)
(-0.03813739126656423 -0.02573184138597476 5.775471104524336e-19)
(-0.04127716356189545 -0.02395835021543066 -2.475814341141825e-23)
(-0.04198367638820329 -0.02104377971059949 1.844772629781253e-23)
(-0.0406326171525361 -0.01754098959699989 5.41024446616303e-20)
(-0.03747757525194597 -0.01380023544700633 -4.217351161018764e-20)
(0.00147279364649087 0.0002421416803077517 -8.272538297608889e-20)
(0.004380563633183033 0.0007655822813165396 1.406922838019659e-19)
(0.00756522817812918 0.001399630182924183 4.125973488984082e-26)
(0.01103958353972254 0.002156781323120477 1.86664947913948e-19)
(0.01445139272826616 0.002975337868244861 -2.134286637432523e-19)
(0.01712902131379863 0.003712508107513032 -2.376091160865318e-19)
(0.01817554449135835 0.004148136987506179 0)
(0.01673855903612257 0.00403769414586187 0)
(0.0125146467316543 0.003227710412776523 5.610495662202066e-24)
(0.006030882293157539 0.001776331341393681 -7.111739102796339e-20)
(-0.001859121910506964 -0.0001691646518761003 1.121876932740801e-19)
(-0.01036480917448486 -0.002439150825395179 4.648112448464036e-20)
(-0.01886013154045591 -0.004872990896960909 4.0543555487222e-20)
(-0.02665849574883034 -0.007340247363584676 -5.130539471250455e-25)
(-0.03283714847419755 -0.01012755920502409 3.394262874402556e-20)
(0.001193150966989875 -0.0007160162913564505 -2.698331155271403e-24)
(0.002771873096510701 -0.002464277253784725 -1.004980242455254e-23)
(0.002967904379594957 -0.004517224203776747 0)
(0.001661675366950475 -0.006562056181351013 -2.628573560047665e-19)
(-0.0007836127162895278 -0.009165508214780132 7.281072287782704e-20)
(-0.004933831794731711 -0.0133977399005213 -4.398356029521104e-25)
(-0.01148103249348861 -0.01873934136254087 5.705469631466903e-19)
(-0.01984696661435161 -0.02377629127591089 1.044165650573774e-18)
(-0.02848483805845654 -0.02720584117111631 0)
(-0.03568532004449584 -0.02832726331037639 6.419475561184223e-19)
(-0.04047807238306909 -0.02730807303825881 -2.252112103580783e-19)
(-0.0427834459440382 -0.02480854724980603 1.946618712053904e-23)
(-0.04287658146622186 -0.02144495881514118 5.881765552858605e-20)
(-0.04108504900828607 -0.01766575593876361 0)
(-0.03760176005054131 -0.01374952202511994 3.642040073143416e-20)
(0.001616182719825921 0.0002490104967724564 3.030757143473603e-25)
(0.004566403797988525 0.0007511439314082225 0)
(0.007633415924660637 0.001334263186263429 -1.55237090274664e-19)
(0.0110770605852934 0.002049393796026742 1.785262925744618e-19)
(0.01482334327435902 0.002896313400689886 -4.080991117504652e-19)
(0.01837226995855173 0.003784255749772857 -2.277223010854943e-19)
(0.02084856500603592 0.00452380856206371 -7.259069032299488e-24)
(0.02118644670478508 0.004847504686183427 -6.738644341197337e-24)
(0.01871099985826237 0.004536945892953493 0)
(0.01359384004975737 0.00354327864229613 -6.979550404147081e-20)
(0.006562108717572838 0.001979672725211611 0)
(-0.001611291857911379 -1.884773322325985e-05 -1.129480102585855e-23)
(-0.01024893636611604 -0.002307129588271487 -3.797468551916492e-20)
(-0.01878904953954627 -0.004740136383306906 -6.830402896140759e-20)
(-0.0265695735222739 -0.007194222717929614 -3.16252711147868e-20)
(-0.032700084314184 -0.009959387382839023 -2.998949859423451e-20)
(0.003728246045144139 -0.002235598105521468 0)
(0.004956994790113929 -0.004406073395833563 0)
(0.004501860110555915 -0.00686627424171951 0)
(0.002354734067669665 -0.009318965060187045 2.248336144031982e-25)
(-0.001059380161457924 -0.0125166019693133 -8.268341670517544e-20)
(-0.006397737523742245 -0.01744671645384913 -3.223075991669573e-19)
(-0.01414287307658796 -0.02314619039398469 -5.814853192315853e-19)
(-0.02319175521391452 -0.02783375809442383 -4.808559575180817e-19)
(-0.03165269364741061 -0.03026654548931394 4.391798553742104e-23)
(-0.03811321307413647 -0.03026948214443725 -2.202679310585334e-24)
(-0.0421197814477678 -0.02840788555723592 -1.773968641609241e-19)
(-0.04380715480868941 -0.02537072748665204 3.151205434402551e-23)
(-0.04344455376605945 -0.02167285581521583 -2.403556088137471e-23)
(-0.04130989470256472 -0.01767932455396374 3.921253391962281e-20)
(-0.03755693289149405 -0.01362086926444135 0)
(0.001867112400269839 0.0002684412557993071 -7.631542714924956e-20)
(0.00501874564334812 0.0007741282215280094 0)
(0.007970088699118139 0.001311676146931083 0)
(0.01119569495496126 0.001957324217782881 1.304262076782943e-24)
(0.01490006113737488 0.002756852007425646 -1.951430598542341e-19)
(0.01888215715116036 0.003689881459014889 2.181467999885052e-19)
(0.022415874912557 0.004619652170763797 2.298885305132138e-19)
(0.02437077872771435 0.005295688108869681 1.321328130722742e-23)
(0.0237230391606396 0.005445004343321015 0)
(0.02026524265388113 0.004944156941231594 6.913004436039067e-20)
(0.01448419038204723 0.003820493071763359 -6.092195800109385e-24)
(0.007077856040981447 0.002188860238930384 3.387927212399931e-27)
(-0.001289989674444372 0.0001625362390776004 -7.23020399392179e-20)
(-0.01001972750372054 -0.002130739590793814 3.201121101346547e-20)
(-0.01858764664953154 -0.004555597794106071 5.909584470268739e-20)
(-0.02634544147152803 -0.006992277128158559 0)
(-0.03243042482873445 -0.009731207564460408 1.318482608103253e-23)
(0.006592936538586005 -0.003948997363645414 -3.487084278916995e-19)
(0.007414949493866138 -0.006597872478190887 0)
(0.00624181201437505 -0.009542670970454591 0)
(0.003164397786478386 -0.01254581693639903 3.467666831459093e-19)
(-0.001376644916796392 -0.0164450292187421 9.032348318028078e-20)
(-0.007998500011531144 -0.0219088052700148 0)
(-0.01674721930189315 -0.02748816483430877 6.612167926693902e-23)
(-0.02604133916152514 -0.03131546718006437 4.068930885039309e-19)
(-0.03405379479438608 -0.03260135113193507 -3.502045336859295e-23)
(-0.03983909147722037 -0.03165339804391183 -1.998239406467825e-19)
(-0.04324950506915428 -0.02915698433596103 1.432987163675918e-19)
(-0.04447721112747439 -0.02571947686025375 1.078138482210458e-19)
(-0.04376227320036917 -0.02176444182976709 -4.238292963493223e-20)
(-0.04134867736136978 -0.01759880948781791 -3.460073176182761e-20)
(-0.03736661633843233 -0.01342174133601627 1.415410607231185e-23)
(0.00223034994850063 0.0002977553242167336 2.801118282596119e-25)
(0.005800367411808291 0.0008352587310225509 -1.740715454800332e-28)
(0.008766726293764694 0.00135350151256694 0)
(0.0117030597371058 0.00192714624241677 -1.636759110080859e-19)
(0.0150808533423417 0.002637188280087995 -1.866725624847594e-19)
(0.01901411271078304 0.003518338999234135 2.088026022430358e-19)
(0.02309480520353703 0.004513978813281101 3.376366921302178e-24)
(0.02629114732226031 0.005422174504164608 2.116135318110331e-19)
(0.02737657120725012 0.005959788246151328 -1.780819824546423e-19)
(0.02571857079934368 0.00592552578661566 8.438655514224776e-24)
(0.0215047185222241 0.005283812284254689 -5.300222579008768e-20)
(0.01526773858788153 0.004080018303140189 4.211862245277491e-20)
(0.007606617716897187 0.002411894627261955 -8.551901424240218e-24)
(-0.0008964252217422927 0.0003755662370155525 3.049405184079159e-20)
(-0.009690116514938747 -0.001912406081868739 0)
(-0.01827224655821899 -0.004322618867689078 -5.497801750309379e-25)
(-0.02600213440664624 -0.006737509419889707 -1.22870531488596e-23)
(-0.03204238278330203 -0.009445855239591095 1.204179674842662e-23)
(0.00976469282317244 -0.005851126648781345 3.991849736939095e-19)
(0.01013564612585153 -0.009034105981552163 -5.151364870946878e-19)
(0.008189687246819987 -0.01255251937392661 6.582999678671417e-19)
(0.004090144169206388 -0.01624305749269188 2.313306801523573e-23)
(-0.001721581920279856 -0.0208066127124201 0)
(-0.009590260219334056 -0.02639510498643572 -7.463540866885964e-23)
(-0.01902046964338614 -0.0313198961504784 -4.625338868911809e-19)
(-0.02825212755052447 -0.03404627474723615 -3.28087513928984e-19)
(-0.03578608643813131 -0.03430117530062952 0)
(-0.04103878882344388 -0.03261768357410795 -1.613239003459521e-19)
(-0.04400265250105128 -0.0296463918219992 -8.525322252453682e-27)
(-0.04487646670140289 -0.02590242357716203 -1.849820242597357e-19)
(-0.04387727947692643 -0.02174278352981564 7.469235693223291e-20)
(-0.04122877492358296 -0.01743491044753094 3.110957221523169e-20)
(-0.03704733360948879 -0.0131567273745909 0)
(0.002682423771619629 0.0003306276124693872 -5.386652135880867e-25)
(0.006925012420778393 0.0009261371915802708 -1.195703860648634e-19)
(0.01013160492484697 0.001460838379821391 -1.0484973161942e-24)
(0.01287698052337245 0.001990139105797482 0)
(0.01577541712458746 0.002599406373940737 1.785911676868865e-19)
(0.0192670183953156 0.003370145609082909 3.990894868664291e-19)
(0.0233027792257788 0.004312408653304731 -6.486730462941675e-24)
(0.02717486184275872 0.005312934119382121 1.256767303636678e-23)
(0.02964777445083969 0.006120240463961418 -3.52944802459635e-19)
(0.02975706915564634 0.006492739265027882 1.384050269569224e-19)
(0.02728862286850526 0.006315236847843027 -6.489661118298447e-24)
(0.02255006065480421 0.005584766996247098 -4.18030913229505e-20)
(0.01600473497712822 0.004337282756649266 -3.439193231234604e-20)
(0.008167559099570159 0.002654507026390618 7.205755467730592e-24)
(-0.0004309393170451499 0.0006212385529742282 -2.640791055268583e-20)
(-0.009268496409577802 -0.001653086629759564 0)
(-0.01785409694780788 -0.004042772792518522 -2.353291421305288e-20)
(-0.02555132570766687 -0.006431505402376611 -1.122383805201329e-23)
(-0.031546846652402 -0.00910485980878877 2.280993987913383e-20)
(0.01322642017045014 -0.007934572547900408 1.384677608540295e-23)
(0.01310424902735267 -0.01170378404202673 5.850767074373591e-19)
(0.01032690483467376 -0.01587192483792394 -1.451882514773126e-18)
(0.005093806495952631 -0.02026560385996751 -9.384754894519375e-23)
(-0.002057474089301254 -0.02519241283675541 0)
(-0.01099243056434289 -0.03041835586865568 -2.606030404498215e-19)
(-0.02081791502007269 -0.03440128515044665 5.034271299471739e-24)
(-0.02987183407953228 -0.03607943475274213 2.620308004190214e-19)
(-0.0370016337332004 -0.03550971667333477 -1.841821620376509e-19)
(-0.04184836683220759 -0.03326984645467133 2.67970524220594e-19)
(-0.04446824943119976 -0.02993573902803482 -2.49454020449359e-23)
(-0.04505790807928902 -0.02594963124405709 8.133114013246421e-20)
(-0.04382072350920362 -0.02162247062323019 -3.355532643741239e-20)
(-0.04096909562854402 -0.01719439991010387 -2.843685411799274e-20)
(-0.03661142247812552 -0.01282860179232863 2.450836550564753e-20)
(0.00316853932810411 0.0003582577533321918 -1.359032909291142e-19)
(0.008320104457087181 0.001027235828755045 0)
(0.01208733861601008 0.001618917009946482 1.317067602477103e-19)
(0.01487488851989463 0.002147772132855476 1.505123750117408e-19)
(0.01735351084691002 0.002684998043458695 0)
(0.02015719986533008 0.003323767526023011 0)
(0.02363322234037449 0.00413518326436727 3.013013703211455e-24)
(0.02748416588226347 0.005087038559310201 -6.06775917280599e-24)
(0.03075670220577739 0.006015630661792973 0)
(0.03233434699771377 0.006682926778884288 1.384660872063361e-19)
(0.03162316249802595 0.006918534389235295 1.068598446683045e-19)
(0.02858355415682529 0.006648365183370903 -8.379090325720135e-20)
(0.02349124401259787 0.005868743512174075 6.820616865515376e-20)
(0.01673466510901164 0.004602710019960732 5.792813362458492e-20)
(0.008773047517737905 0.002920857085102414 0)
(0.0001060402786609557 0.0009007261376765434 5.256857623137659e-25)
(-0.008760995918840402 -0.001352900845107279 0)
(-0.01734169734076265 -0.003716624072202804 -2.150071030212855e-20)
(-0.02500222760571469 -0.006074895869128637 2.037664859193263e-26)
(-0.03095277196525512 -0.008708888724800841 -2.132421749029911e-20)
(0.01695437653531511 -0.01018626130388412 -5.120794944668916e-19)
(0.01628264481191618 -0.01457602679153247 6.500677738181155e-19)
(0.01257222780824319 -0.01938293016766641 1.503140836713758e-18)
(0.0060820807678381 -0.02424165227817938 -3.521386482778488e-19)
(-0.002340703391377299 -0.0291149557644506 -3.453074621340594e-23)
(-0.01210651228118323 -0.03370562053743734 -4.80458908225025e-23)
(-0.02215206212019756 -0.03674674805462345 3.016344003738753e-19)
(-0.03101895766212357 -0.03755433677269154 -2.123156543173742e-19)
(-0.03782867208321707 -0.0363486882319279 1.528679129541148e-19)
(-0.04235993518103678 -0.03368256491581671 -1.144567589711742e-19)
(-0.04470368652407607 -0.03006314577881062 0)
(-0.04505612357776254 -0.0258802634920815 0)
(-0.04361382430598289 -0.02141287248622186 3.063967304881522e-20)
(-0.04058340885653923 -0.01688157440031549 2.629016914694657e-20)
(-0.03606870938828913 -0.012438946240209 -2.288373071491712e-20)
(0.003532441258069029 0.0003634129160637014 -6.539518686512483e-20)
(0.009816618801973714 0.001111395690506322 -4.151280378324725e-25)
(0.01450785214625394 0.00179379219918768 1.266209872752178e-19)
(0.01772816065764485 0.002378226746557445 0)
(0.02002487818052375 0.002895782027698774 0)
(0.02214910228342506 0.003431211972050443 2.76413226982975e-24)
(0.02470766377101327 0.004077334629690846 0)
(0.02788968053913776 0.004881755858387567 -1.894011762322911e-19)
(0.03118638442265837 0.005773553325354167 0)
(0.03365459017082587 0.006585975484141992 4.191652737734381e-24)
(0.03444392651212765 0.007129444373210047 -6.562318078115922e-24)
(0.03314370996731449 0.007273762941403277 -8.434188688186781e-20)
(0.02971954158147759 0.006951502092185733 1.365759450420852e-19)
(0.02438744126754793 0.006150283734686415 -5.74077978369801e-20)
(0.01748272023408086 0.004883357702994042 -5.013039412471159e-20)
(0.009430750925733854 0.003214084674293817 -2.261841418232232e-20)
(0.0007135408987991058 0.001215255765094635 2.106291757651495e-20)
(-0.008172748983261566 -0.001011477343962058 0)
(-0.01674213929706299 -0.003344102027085582 1.984466886547598e-20)
(-0.02436271387406685 -0.005667679126946213 1.938310598120429e-23)
(-0.0302680212920751 -0.008258006849340376 0)
(0.02090276869052915 -0.01258043614329993 1.137770173240858e-18)
(0.01957072472772455 -0.01756585237967031 -8.943884509818848e-23)
(0.01474428903911475 -0.02281093957364903 1.631503409338052e-22)
(0.006952489267538166 -0.02774922612697709 5.924004173190492e-19)
(-0.002550883577712726 -0.03232927772270254 5.588319712914188e-23)
(-0.01293516753709497 -0.03625425781634821 1.704580002667136e-19)
(-0.02310391257422914 -0.03848404153814362 1.227120330691398e-19)
(-0.03180392696768481 -0.0386019510763321 1.763785868944864e-19)
(-0.03835763790036487 -0.03690396353510651 0)
(-0.04263357670805006 -0.03390299615045644 -1.002289374559856e-19)
(-0.04474637528430019 -0.03005306201693285 0)
(-0.04489440791642727 -0.02570670983270556 -6.65691342349e-20)
(-0.0432716989479849 -0.02112005946919634 -2.835881157658336e-20)
(-0.04008233481665931 -0.01649910954262416 -8.173941711074113e-25)
(-0.03542752352131475 -0.01198851593961335 2.159377097123967e-20)
(0.003554330334149752 0.0003295199736415158 -1.259554799318282e-19)
(0.01093994110361651 0.001126161356401129 1.064753454726007e-19)
(0.01709955935695601 0.001938226796128929 1.217732749152804e-19)
(0.02125289792231955 0.002631933218533798 -3.692593725432193e-27)
(0.02382856483889526 0.003202147996441483 -1.19279306074731e-24)
(0.02550461341633866 0.003694391604900957 1.718061146457865e-19)
(0.02708055079567043 0.004200966968555594 0)
(0.02910634367180378 0.004807543736626762 1.780007613772151e-19)
(0.03165721712050874 0.005543592862944318 -1.609028157400002e-19)
(0.03420319226898128 0.006333864466774245 -5.135731157561868e-27)
(0.03593862412609154 0.00703773122377684 0)
(0.03615206060860835 0.007495954756850203 5.177075341433503e-24)
(0.03445562622631237 0.007588174908527193 0)
(0.03077412636693351 0.007242581860013873 -1.148253649134022e-19)
(0.02527649878809373 0.006439018657128248 2.481371483770952e-20)
(0.0182648143915938 0.005184164538402925 2.21628406453817e-20)
(0.01014498360679874 0.003536654517617046 2.036043660811104e-20)
(0.001389820112822773 0.001566051603857799 -1.924016456333226e-20)
(-0.00750861597214379 -0.0006281422773331577 1.868886353947956e-20)
(-0.01606189389239015 -0.002924712183471707 0)
(-0.02363999287763684 -0.005209406436291174 1.870176772260954e-20)
(-0.02949987073603809 -0.00775182269888088 -3.716440748542762e-23)
(0.02497443385817833 -0.0150611728181904 -3.4640933507474e-24)