/*--------------------------------*- C++ -*----------------------------------*\
| =========                 |                                                 |
| \\      /  F ield         | OpenFOAM: The Open Source CFD Toolbox           |
|  \\    /   O peration     | Version:  2006                                  |
|   \\  /    A nd           | Website:  www.openfoam.com                      |
|    \\/     M anipulation  |                                                 |
\*---------------------------------------------------------------------------*/
FoamFile
{
    version     2.0;
    format      ascii;
    class       volVectorField;
    location    "518";
    object      wallShearStress;
}
// * * * * * * * * * * * * * * * * * * * * * * * * * * * * * * * * * * * * * //

dimensions      [0 2 -2 0 0 0 0];


internalField   uniform (0 0 0);

boundaryField
{
    airfoil
    {
        type            calculated;
        value           nonuniform List<vector> 
172
(
(6.968324855083554e-05 2.280176123921096e-05 -3.254994366949801e-37)
(7.486773469361405e-05 2.842202012393092e-05 -5.894527874659236e-26)
(7.831091931079355e-05 3.433605767153887e-05 -3.862289421808152e-21)
(7.868722402841873e-05 3.971330931064546e-05 -5.888741357091603e-26)
(7.620059409850732e-05 4.43038043138701e-05 5.891326334630652e-26)
(7.067137553866767e-05 4.760343245964456e-05 -7.720723580570434e-21)
(6.215518317256325e-05 4.911028973930975e-05 -7.725528494673718e-21)
(5.088089192452027e-05 4.823129969709365e-05 -1.180415195817289e-25)
(3.75513956302862e-05 4.447314264749805e-05 1.183577563190603e-25)
(2.365308578736657e-05 3.789670830676435e-05 -1.556566226139309e-20)
(1.149686597324271e-05 3.023338603210312e-05 -3.911781707227558e-21)
(2.326758943944406e-06 2.540534199529688e-05 9.83796543427749e-22)
(-6.742907009964769e-06 2.632772780052183e-05 1.505722532487134e-25)
(-1.982142820075631e-05 3.008065335754964e-05 -1.201150093174444e-25)
(-3.621088725010219e-05 3.225860691228344e-05 2.618746570130218e-41)
(-5.244114590658648e-05 3.156287837152631e-05 1.186504883165247e-25)
(-0.007045978828027757 -0.004888301937199096 4.016140799857239e-25)
(-0.007024712756187611 -0.004670697182921635 2.938735877055719e-39)
(-0.006993983698864511 -0.004460941005021672 -5.188935925767602e-20)
(-0.006955101405618734 -0.004259270165818201 7.864388074032965e-25)
(-0.006909255242966091 -0.004065813567225749 -5.117927798922993e-20)
(-0.006857584252952919 -0.003880596581139328 -3.890923660638952e-25)
(-0.006800909158343501 -0.003703445817138442 -5.038990768534925e-20)
(-0.006740048464767743 -0.003534201705114963 4.997226868962603e-20)
(-0.006675725400737105 -0.003372657000823894 -4.224432823267596e-36)
(-0.00660853465222605 -0.003218549111226307 2.455099570683824e-20)
(-0.00653908261116961 -0.003071637214858287 -2.432685057833186e-20)
(-0.006467879135123592 -0.002931649831420815 -3.659060578175348e-25)
(-0.006395302569819721 -0.002798275032784322 3.669389802333744e-27)
(-0.006321736065791167 -0.002671226318443615 3.685267432214208e-27)
(-0.006247562943812525 -0.002550237704387978 -2.340549191305399e-20)
(-0.006173030399809202 -0.002435007334302088 1.469367938527859e-39)
(-0.006098331542055996 -0.002325235366448257 -4.587863932516568e-20)
(-0.006023723513108602 -0.002220668864019977 -2.878819928256505e-26)
(-0.005949411569070293 -0.002121054118412192 2.247397499100138e-20)
(-0.005875501007021604 -0.00202612074926862 7.346839692639297e-40)
(-0.005802101373998412 -0.001935620208640187 2.187154176498719e-36)
(-0.005729409521033096 -0.001849350555834538 2.178418168220204e-20)
(-0.005657556737040256 -0.001767102425415323 3.271813987836533e-25)
(-0.005586697030827434 -0.001688687294736043 -2.133319446087098e-20)
(-0.005516566604227447 -0.001613806755572702 2.111096909733229e-20)
(-0.005448121221914138 -0.001542546452866689 2.088998316745163e-20)
(-0.005375399241796936 -0.001473260899402225 -7.346839692639297e-40)
(-0.005305956926498769 -0.001407915314253578 -1.3386136947837e-25)
(-0.005241856640246747 -0.001345611312408902 1.484977235534695e-25)
(-0.005172407829762109 -0.001282302998344071 1.464012063693333e-36)
(-0.005098127946704412 -0.001218360420208534 2.802596928649634e-45)
(-0.005022435988295383 -0.001154927779626962 1.241801473569853e-25)
(-0.00494526621123035 -0.00109211237461256 -2.362869094502286e-25)
(-0.00486630519801319 -0.001029945747231665 1.27672564552699e-25)
(-0.004785441858050032 -0.0009685076237089194 0)
(-0.00470272582341363 -0.0009079154565617097 -1.306082324863412e-20)
(-0.004618255378730047 -0.0008482963574861623 -1.233386991495027e-20)
(-0.004532090008451201 -0.0007897515833568155 -8.956140704645313e-26)
(-0.0044443723780904 -0.0007323914295117903 -2.19816743239667e-20)
(-0.004355048649582114 -0.0006762945976057341 -2.074216633918775e-20)
(-0.004264339011184549 -0.0006216033053475146 1.956743714229773e-20)
(-0.004172291116430631 -0.0005683781535001006 1.845459071655399e-20)
(-0.004078861517963338 -0.0005166763860123987 -1.740057741113864e-20)
(-0.003984103914724624 -0.0004666137171448097 6.257792806442423e-26)
(-0.003888048493639174 -0.0004182078208000808 1.545759505502909e-20)
(-0.003790543710862658 -0.0003715542459749427 9.183549615799121e-41)
(-0.003691707391175635 -0.0003266770660812848 1.293970582252487e-26)
(-0.00359124686123018 -0.000283653196254499 -5.134303493883941e-27)
(-0.003489144523724131 -0.0002425023369465265 -6.080332608722219e-21)
(-0.003384776882388054 -0.0002032662619884709 9.624359997357479e-38)
(-0.003278245219715618 -0.000166020695756877 2.161004018967731e-37)
(-0.003169536547117946 -0.0001308182176495262 -5.064527454361539e-21)
(-0.00305927234257877 -9.773423759082765e-05 -2.240417077722917e-27)
(-0.002946333193310859 -6.682846681351316e-05 -2.23815274942708e-21)
(-0.002832100560974679 -3.792957765786051e-05 4.205891543435843e-21)
(-0.002716169634239359 -1.257152721883501e-05 5.739718509874451e-42)
(-0.002589279682289552 1.617702858117432e-05 -9.274398209333247e-22)
(-0.002448520480998467 3.684576617827624e-05 -4.394041505234386e-38)
(-0.002318186330019531 5.491770670524025e-05 3.242860451615896e-21)
(-0.002192822362222726 6.740710031176985e-05 -1.134438673466385e-26)
(-0.002080437482085046 7.702156782986599e-05 -5.665046097201448e-21)
(-0.001977877258039371 8.435017020314471e-05 6.488672911504734e-27)
(-0.001883658236909731 8.982588562987399e-05 -4.967084027545384e-21)
(-0.001798537462282532 9.398146170865859e-05 -9.056193275307095e-27)
(-0.001720550327226707 9.706764628130798e-05 -1.749925642493258e-20)
(-0.001649952436396913 9.940063646290568e-05 0)
(-0.001585383052256084 0.0001010720127353843 7.256373198013781e-27)
(-0.001526683476170245 0.0001022769165948924 7.298150495025463e-21)
(-0.001473154332228496 0.0001031265015072982 -6.687975024329502e-27)
(-0.001424241733448114 0.000103700424554823 6.506369133742067e-21)
(-0.001379484126810907 0.0001040473567555198 -6.154296562994172e-21)
(-0.001338470876048941 0.0001042192227631088 5.658103710073681e-27)
(-0.001300755593050736 0.0001042648428334155 -1.105203507615712e-20)
(-0.001265909492015978 0.0001042048781286812 2.279816192122132e-37)
(-0.001233594398139927 0.0001040505023814545 9.970871569995972e-21)
(-0.001203542086554908 0.0001038107968385415 -4.448006258348459e-27)
(-0.001175444339019908 0.0001035089788065063 4.38579299921604e-27)
(-0.001149063831655258 0.0001031540634545964 8.620747615954259e-21)
(-0.001124137765290826 0.0001027408904486717 2.29588740394978e-41)
(-0.001100568502243922 0.0001022688897033066 0)
(-0.001078175259897902 0.0001017558215331368 -7.534177599456629e-21)
(-0.001056792409336626 0.000101202995334795 -1.444132303369128e-20)
(-0.001036320204078831 0.0001006136358289774 -6.92841513854404e-21)
(-0.0010166553001362 9.997173983537734e-05 6.655969685839203e-21)
(-0.0009977404496954744 9.929802875325399e-05 -6.401939342605858e-21)
(-0.0009794973979401021 9.859751544841022e-05 6.164919486742801e-21)
(-0.0009617876442279107 9.786467661389285e-05 3.097229867233497e-27)
(-0.0009446183965177124 9.709478613662616e-05 5.73705847701956e-21)
(-0.0009279861219683328 9.62944879567015e-05 0)
(-0.0009117626166346204 9.546917567783898e-05 -2.514233652750931e-27)
(-0.0008960275518129523 9.463193451893645e-05 4.95593261928158e-27)
(-0.0005359271235942431 5.68911347308684e-05 0)
(-0.0005197746636834563 5.47155925693716e-05 3.128946203817781e-43)
(-0.0005104442452692491 5.327399227765993e-05 -2.590009981781157e-27)
(-0.0005090637200977302 5.263314482989508e-05 2.58673586644719e-27)
(-0.0005151990670910125 5.274422134466347e-05 -2.717891821201081e-27)
(-0.0005268737898582397 5.337069746706551e-05 -6.635005222749764e-29)
(-0.0005382334691055441 5.393366191715633e-05 5.929495685635858e-21)
(-0.0005455352688424512 5.401881681986136e-05 -2.870935738868005e-27)
(-0.0005454992811495502 5.333682955805287e-05 3.0166236406619e-27)
(-0.0005375716757066675 5.186369239014895e-05 -6.433258438000483e-21)
(-0.0005226631622241585 4.968681559416677e-05 1.802501200840973e-37)
(-0.000499221725947769 4.678562578775219e-05 1.938569557467493e-28)
(-0.0004703142715103423 4.33398871370232e-05 -1.397642949952293e-20)
(-0.0004336545893908939 3.926782096357855e-05 -3.437297267628269e-27)
(-0.0003890204282980075 3.457124142018355e-05 7.335389727108142e-21)
(-0.0003358064064224095 2.92458014054781e-05 7.48010472171041e-21)
(-0.0002742519797628351 2.337093962667334e-05 -7.594743305146735e-21)
(-0.0002062115641128494 1.716836213609007e-05 -3.084253801610357e-29)
(-0.0001345957353701184 1.093567022910676e-05 -3.697735019377296e-27)
(-6.223281996800061e-05 4.940106876655135e-06 -7.706719911369713e-21)
(9.574534403865876e-06 -6.846181417280186e-07 7.667960592104076e-21)
(8.040461992132427e-05 -5.874527581526975e-06 -1.838304357546758e-27)
(0.0001502278719668524 -1.060570049338389e-05 -1.764462117706617e-27)
(0.0002161244098668012 -1.457402369550409e-05 3.548759768648093e-27)
(0.0002808880064231062 -1.819093805613461e-05 -1.785545123882317e-27)
(0.0003363787473707222 -2.048835464774312e-05 6.551617702931147e-44)
(0.0003903211483382677 -2.24263618777644e-05 -9.95487328912244e-28)
(0.000433220822219224 -2.302291725222828e-05 1.760789588036984e-27)
(0.000469350223008789 -2.279163452253117e-05 5.473822126268817e-48)
(0.0004974677259680602 -2.163482527075701e-05 -4.375991583996362e-28)
(0.0005168015755512952 -1.954037415051505e-05 1.874293771077971e-21)
(0.0005268359272757897 -1.65507152209786e-05 -2.869859254937225e-42)
(0.0005255517447221165 -1.26864455100608e-05 -4.646920642660354e-28)
(0.0005120971266873937 -7.970826359150102e-06 -5.016177155997722e-22)
(0.0004813852309296649 -3.038308689721561e-06 9.643444561402812e-39)
(0.0004299830398551001 1.971131349712131e-06 -9.494480929451226e-39)
(0.0003518824145952234 4.885216305967506e-06 5.624107997980555e-22)
(0.0002421494732399973 5.692802015021644e-06 0)
(0.0001286079129900844 4.2558801535225e-06 4.055972085002781e-38)
(3.653772105267308e-05 1.529509457253826e-06 1.317283220699914e-21)
(-2.330117840344683e-05 -1.225031110555244e-06 -1.386808071621695e-21)
(-6.084575552630271e-05 -3.788296431457704e-06 0)
(-0.0001047462341346912 -7.553767961420012e-06 2.993587846284124e-21)
(-0.0001537998887318578 -1.266966886619571e-05 -1.190470360300485e-26)
(-0.0001807892517947968 -1.675162652322291e-05 6.406586410645069e-21)
(-0.000179627846590573 -1.848495020060263e-05 3.325388733306687e-21)
(-0.0001610792858403189 -1.822552632600142e-05 6.908931122940943e-21)
(-0.0001363293721838023 -1.681680407796789e-05 2.737676523869035e-26)
(-0.0001133220716454214 -1.514071425292795e-05 -1.423226420743217e-26)
(-9.483965525579936e-05 -1.364469174738805e-05 3.876444941268642e-21)
(-8.207039191477809e-05 -1.265113573300099e-05 -1.539030003846994e-26)
(-7.47672406315498e-05 -1.229633110228705e-05 4.199593266503766e-21)
(-7.188168717579665e-05 -1.256674245663772e-05 1.670764600615304e-26)
(-7.156204743245322e-05 -1.324970706091907e-05 2.253980220060016e-29)
(-7.176616264958978e-05 -1.403441355797192e-05 -4.770662625714416e-21)
(-7.047680965337823e-05 -1.451435364019913e-05 4.986405293335987e-21)
(-6.622332061419727e-05 -1.43260480642247e-05 -5.214783063834748e-21)
(-5.816968053566154e-05 -1.31880758388572e-05 5.455405842627899e-21)
(-4.618863731571114e-05 -1.095778097547216e-05 -4.591774807899561e-41)
(-3.062844132539055e-05 -7.581756464301033e-06 2.985354968674235e-21)
(-1.239931501925983e-05 -3.218862721386365e-06 4.765064075236712e-26)
(7.329435477669087e-06 1.918416563524646e-06 1.579919027523285e-28)
(2.716799767289016e-05 7.482009772003696e-06 -1.040946395435064e-25)
(4.572765654252254e-05 1.30518086799368e-05 1.087750759812001e-25)
(6.077879309964654e-05 1.807862522179559e-05 -5.689057086790104e-26)
)
;
    }
    farfield
    {
        type            calculated;
        value           uniform (0 0 0);
    }
    side
    {
        type            empty;
    }
    procBoundary2to0
    {
        type            processor;
        value           uniform (0 0 0);
    }
    procBoundary2to3
    {
        type            processor;
        value           uniform (0 0 0);
    }
}


// ************************************************************************* //
