/*--------------------------------*- C++ -*----------------------------------*\
| =========                 |                                                 |
| \\      /  F ield         | OpenFOAM: The Open Source CFD Toolbox           |
|  \\    /   O peration     | Version:  2006                                  |
|   \\  /    A nd           | Website:  www.openfoam.com                      |
|    \\/     M anipulation  |                                                 |
\*---------------------------------------------------------------------------*/
FoamFile
{
    version     2.0;
    format      ascii;
    class       volScalarField;
    location    "518";
    object      k;
}
// * * * * * * * * * * * * * * * * * * * * * * * * * * * * * * * * * * * * * //

dimensions      [0 2 -2 0 0 0 0];


internalField   nonuniform List<scalar> 
28642
(
2.310386913325043e-05
2.342321777526977e-05
2.309160475419369e-05
2.374417531229857e-05
2.346665051333864e-05
0.0001601296518547371
2.406581098847814e-05
2.384317752226283e-05
0.0001629359172593045
0.0006122116611266633
2.438897382987794e-05
2.422303092056773e-05
0.0001657655872066278
0.000622664987553499
0.001370614840106918
2.471706697509465e-05
2.460721303361886e-05
0.0001686355571620152
0.0006332166779861358
0.00139013792549487
0.002103687869393587
2.504906922616072e-05
2.499614960601062e-05
0.0001715541212628635
0.0006439306345077448
0.001409758449044428
0.002127333842907365
0.002651257027531751
2.538299455156107e-05
2.539044600648994e-05
0.0001745210915826542
0.0006548371583721002
0.001429594848041398
0.002150978803230012
0.002676068689904239
0.0030350803995252
2.572216142542237e-05
2.579066811505227e-05
0.0001775435005969854
0.0006659329370524418
0.001449693930229023
0.002174761730475975
0.002700786143275319
0.003059399733517551
0.003294631388780035
2.606799073753226e-05
2.619703515383209e-05
0.0001806301350427561
0.0006772450685889423
0.001470038395233131
0.002198727332944419
0.002725548814551323
0.003083557630652021
0.003317755515928751
0.003466487333592308
2.641785944122154e-05
2.66104028903381e-05
0.0001837798030547272
0.0006888086733814438
0.001490673024761023
0.002222842056539656
0.002750390682341745
0.003107674249602964
0.003340675109183376
0.003488192127944096
0.003577505849374709
2.677168076936628e-05
2.703074463905313e-05
0.000186998383651581
0.0007006173144178364
0.001511656079545269
0.002247151633191721
0.002775264728658104
0.003131769827694787
0.003363476605965198
0.003509650891593356
0.003597783298100824
0.00364601492150803
0.003666562939788148
0.00106176936030005
2.713217714251954e-05
2.74592059177282e-05
0.0001902906845905918
0.00071269042016264
0.001532963470710281
0.002271718246934556
0.002800211114018799
0.003155787778699279
0.003386167837045524
0.003530915910257832
0.003617747503084412
0.00366491148101021
0.003684367367264742
0.003684568171165235
0.001332491730007537
0.001026468376963071
0.000775293257920522
2.750111709522751e-05
2.789629865492112e-05
0.0001936677912456344
0.0007250501270061392
0.001554618379946496
0.002296502944514004
0.002825288994445954
0.003179757382936568
0.003408688673794822
0.003551989324701557
0.003637435188252475
0.003683403973771843
0.003701871443232117
0.003700918186236905
0.003686488403948503
0.001290959673190968
0.0009929082458332789
0.0007488845380319176
0.0005549540814982812
2.787657162581949e-05
2.834281443481924e-05
0.0001971319965430044
0.0007377361182114466
0.00157665739092728
0.002321519963691679
0.002850451154149029
0.003203731775977395
0.003431055963203745
0.003572814832424094
0.003656853705255624
0.003701531741371873
0.003718909388715219
0.003717004311198848
0.003701415015585723
0.003676559413774213
0.001586288918107107
0.001250582126037942
0.0009606975043347324
0.0007236658122598176
0.000535474102656373
0.0003875101325583963
2.825825093607054e-05
2.879909489233293e-05
0.0002006888647540122
0.0007507543404549735
0.001599138095135828
0.002346807074715039
0.002875701499060829
0.003227663054998267
0.003453315228612768
0.003593398574815079
0.003675957432658862
0.003719315977819239
0.003735503007531053
0.003732586073684891
0.003716059356357333
0.003690065910907074
0.003657872365379504
0.001537109954241083
0.001211176246738206
0.0009295317319827215
0.0006993695565706833
0.0005167477949258241
0.0003730417596881734
0.0002560277417249534
2.864679364780957e-05
2.92659180356532e-05
0.0002043455217200346
0.0007641230640669566
0.001622054679548394
0.002372420286269521
0.00290107495322345
0.00325154474337353
0.003475423052915572
0.003613777789131542
0.003694745360460761
0.003736725607288404
0.003751685187743935
0.003747665432979362
0.003730184592789631
0.003703254727508567
0.003670047955352133
0.003633133698051899
0.001826310050518134
0.00148887712595904
0.001172645624440426
0.0008991897932218331
0.0006757906607162105
0.0004985943226100445
0.0003590109869731515
0.0002455510739926765
0.0001575336473765889
2.90450482220297e-05
2.974459949678851e-05
0.0002081105939964016
0.0007778702801258129
0.001645423867084804
0.002398339598077605
0.002926621059150059
0.003275404967672967
0.00349736457438524
0.003633915813435136
0.003713246892154629
0.003753756213818734
0.003767438494338934
0.003762276220597069
0.003743771435820947
0.003715928973069512
0.003681832062552092
0.003644099705694325
0.00360495333402675
0.003566562091524292
0.001769789396199049
0.001441366036640276
0.001134852852615038
0.0008695096867531093
0.0006527677919221497
0.0004808731609639847
0.0003453098016577187
0.0002353129552461544
0.0001506823433152176
2.945433607918778e-05
3.023590102446683e-05
0.0002119964067903186
0.0007920265984080668
0.001669283517119629
0.002424568841069262
0.002952310857218251
0.003299286258050218
0.00351915894529159
0.003653792051377013
0.003731432909205639
0.003770430751836279
0.003782757733332627
0.003776409801113615
0.003756845530115814
0.003728048267803132
0.003693095069891596
0.003654554900958297
0.003614807063312808
0.003576014413327528
0.003540570804981775
0.002037449126319764
0.001714454760863523
0.001394879409965293
0.001097670060552114
0.0008403608975402436
0.0006301729347256176
0.0004634726246032279
0.000331850327815746
0.0002252655822478281
0.0001438572609381131
8.784807982487994e-05
2.987315284409341e-05
3.074085820793598e-05
0.0002160075610673187
0.0008066345102215745
0.001693671663660171
0.002451139291249505
0.002978136262520173
0.003323157922393101
0.003540841482398221
0.003673416349280966
0.003749278823131834
0.003786726672702875
0.00379766111206196
0.003790061190764352
0.003769401311584932
0.003739624472191598
0.003703793812376575
0.003664470292970329
0.003624023006136084
0.003584700429185819
0.003548660369293037
0.003518165530273956
0.002289455449202432
0.001976506496892248
0.001659733776605837
0.001349280089553511
0.001061031532735833
0.0008116319426484454
0.0006079004981233027
0.0004463029241254023
0.0003185609495505963
0.0002153644084239237
0.0001371038749686938
8.37599440751894e-05
4.844060664197013e-05
1.786082388995741e-09
3.030181361639148e-05
3.126021641624826e-05
0.0002201529942180104
0.0008217061047304198
0.001718640849712624
0.002478082881412061
0.003004119677873803
0.003347002318251021
0.003562384835642843
0.003692816443651071
0.003766786321494711
0.003802617119995546
0.003812131036511959
0.003803245336679108
0.003781434166758153
0.003750651101593637
0.003713931714924681
0.003673817901289997
0.003632679727572549
0.003592769328434881
0.003556256085977137
0.003525254881357863
0.003501750944559543
0.003487861377125747
0.002536782834362794
0.002227168472698584
0.001916667146410594
0.001606374183144601
0.001304368196248887
0.001024856474061416
0.0007832280382801881
0.0005858601620167918
0.0004292899982172383
0.0003053839937984752
0.0002055730015978802
0.0001304225276465801
7.96254789380405e-05
4.632083647737087e-05
2.441412073048973e-05
1.80207759000532e-09
1.78640996928281e-09
1.786103684424003e-09
1.785897988662008e-09
1.785724028458875e-09
1.78557340364069e-09
3.074093211942554e-05
3.179496764031878e-05
0.0002244434158538678
0.0008372705639599332
0.001744187615187685
0.002505442359579429
0.00303028573794653
0.00337083132082471
0.003583765424563403
0.003711970338681738
0.003783975610611496
0.00381809763108073
0.003826140111935335
0.003815948776976084
0.00379295765116483
0.003761122893428948
0.003723500409020374
0.003682599885489835
0.003640773623430911
0.003600282387381925
0.003563293579432779
0.003531893130832382
0.003508075439833111
0.003493685856486952
0.003490633960594601
0.002806145539336222
0.002478817049846515
0.002166552198966826
0.001858421402258692
0.001554065819218652
0.001260114521374671
0.0009890519234326493
0.0007550631693839768
0.0005639736344109332
0.0004123722342952373
0.0002922746563969934
0.0001958645247405251
0.0001238134035689449
7.548227657934889e-05
4.407317793336324e-05
2.356026748566729e-05
1.055829675290408e-05
1.976607853596722e-08
2.729476822842538e-09
1.806995035293464e-09
1.786481247871835e-09
1.786125240233053e-09
1.785918493479614e-09
1.78574407806514e-09
1.785593406967913e-09
1.785460955238719e-09
1.785342838073752e-09
3.11914346791533e-05
3.234631353965387e-05
0.0002288892096164269
0.0008533657760583792
0.001770338709916321
0.002533196331839389
0.003056665996134297
0.003394662605349842
0.003604984937691913
0.003730851793641079
0.003800829845068905
0.003833181659942704
0.003839679996987495
0.003828144861925676
0.003803961439251189
0.003771052732445733
0.003732493752341736
0.003690807074469158
0.003648311549119272
0.003607251994250192
0.003569806606074791
0.003538044692233755
0.003513919483764322
0.003499230356316337
0.003495554640146145
0.003504205896086547
0.003121688171386185
0.002755557465865408
0.002421872100540014
0.002107372143209692
0.001801424952224894
0.001502714517349728
0.0012163909664658
0.0009535334094115845
0.000727056481428093
0.0005421725722639942
0.0003954983274974998
0.0002791998371639143
0.0001862226329358262
0.0001172794721059822
7.135998105145282e-05
4.174992652797476e-05
2.256748811846291e-05
1.033184827390131e-05
3.771115311680402e-06
1.03527850983434e-06
1.894793969574386e-07
2.165823744079205e-08
2.889544737109698e-09
1.813021017176902e-09
1.78657985742152e-09
1.786147338590572e-09
1.785939232387203e-09
1.785764355433401e-09
1.785613634857495e-09
1.785481462344179e-09
1.785363890689396e-09
1.785257426797879e-09
1.785159244253763e-09
3.165610385256902e-05
3.291623518925308e-05
0.0002335024519850519
0.0008700254499705297
0.001797136003360467
0.002561354710217278
0.003083228153506029
0.003418518726699848
0.003626054220539743
0.003749454068750313
0.003817322232359293
0.003847856226313291
0.003852758632296619
0.003839823272223897
0.00381442014299611
0.003780433907787176
0.003740925136001192
0.003698432730056567
0.00365528556351383
0.003613692110690337
0.003575815111712822
0.003543730349772377
0.003519358535176116
0.003504444589177279
0.003500502376024157
0.003508721107444557
0.003529803094745894
0.003564440921348498
0.003488267304106639
0.003077276587680623
0.002704372972853219
0.002365711261666545
0.002049275751202508
0.001745416897682897
0.001452043155055186
0.001173056479917947
0.0009182070506228387
0.0006991331088206707
0.0005203996465167742
0.0003786295989651874
0.0002661412451862636
0.0001766434661824277
0.0001108289541336107
6.728376816150314e-05
3.939468443567602e-05
2.147347330953698e-05
1.002751973997723e-05
3.73982483698489e-06
1.032962216958619e-06
1.969744288483566e-07
2.342331103968372e-08
3.058901315912211e-09
1.820271470474899e-09
1.786716010178042e-09
1.786170015968444e-09
1.78596020090649e-09
1.785784854875856e-09
1.785634079613066e-09
1.785502181534372e-09
1.785385155878359e-09
1.785279483420148e-09
1.785182304454128e-09
1.785090842852602e-09
3.213662640591965e-05
3.350594469177332e-05
0.0002383013249621195
0.0008872886298354968
0.001824610437463232
0.002589944920061077
0.003109967487871591
0.003442364754588995
0.003646988897125247
0.003767781380745226
0.003833440033165494
0.00386209493493022
0.003865365491102462
0.00385098787149616
0.003824323341021158
0.003789243139299038
0.003748791324904236
0.00370549141535068
0.003661689279632469
0.003619598042356809
0.003581340017018128
0.003548973106714845
0.003524415079700428
0.00350936427129092
0.003505274465623264
0.003513292688574537
0.003534187927582983
0.003568409861482463
0.003616318560267905
0.00367831034557022
0.004360471796206344
0.00389225800309394
0.003445126558819031
0.003029937844477953
0.002652661796715968
0.002309805603003407
0.001991886057135889
0.001690169360970719
0.001401927010777752
0.00113001713081581
0.0008829939327432641
0.0006712302118497675
0.0004986106513820003
0.0003617419760665994
0.0002530956739137401
0.0001671364035142902
0.0001044760945866619
6.327637514658147e-05
3.704334874529725e-05
2.031443301160151e-05
9.65585574853236e-06
3.684780842497758e-06
1.030642221056266e-06
2.015951579984123e-07
2.499875703781842e-08
3.23416998471947e-09
1.828838423692287e-09
1.786902111108374e-09
1.786193375252725e-09
1.785981486592459e-09
1.78580557117366e-09
1.785654734447528e-09
1.785523104537791e-09
1.785406622738122e-09
1.785301741449892e-09
1.785205572227376e-09
1.785115324389393e-09
1.785028532573981e-09
1.784943073741747e-09
3.26320044182892e-05
3.411689256037027e-05
0.0002432954774150815
0.000905211895699934
0.001852798486801889
0.002618983964874005
0.003136897598509905
0.003466184925382161
0.00366775689290771
0.003785843457203985
0.003849181625649259
0.003875881467263321
0.003877474953630995
0.003861629689160386
0.003833672934425125
0.003797470665293012
0.003756071499512815
0.003711983631136009
0.003667539003602766
0.003624965182064676
0.003586381380993082
0.003553799649276956
0.00352911408874001
0.003514008377107788
0.003509880461962964
0.003517819183133873
0.003538575203517465
0.003572563053624148
0.003619950467686199
0.00368081177397156
0.003754918290947285
0.003841761646346813
0.004781437772423069
0.004311614675146249
0.003844630735986828
0.003397308669529479
0.002980434726615584
0.002599846522769948
0.002253806855932629
0.001934889104835149
0.001635412092629681
0.00135217567600338
0.001087153031545795
0.0008478179670439896
0.0006432985525504097
0.000476779078477659
0.0003448290191272835
0.0002400767110962754
0.0001577233000582893
9.824082691420532e-05
5.935916551706925e-05
3.472505598679143e-05
1.912271500468496e-05
9.230249260956483e-06
3.60642121415401e-06
1.026995579577802e-06
2.032114728786034e-07
2.632824372797965e-08
3.411401924584207e-09
1.838780894022465e-09
1.787152732948115e-09
1.786217780421081e-09
1.786003073088082e-09
1.785826498501817e-09
1.785675592535995e-09
1.785544223744402e-09
1.785428281904305e-09
1.785324189614508e-09
1.785229034250256e-09
1.785140009689221e-09
1.78505464759492e-09
1.784970803734258e-09
1.784886310478627e-09
3.314295390067639e-05
3.47501026704115e-05
0.0002484982163839127
0.0009238211616018563
0.001881755481802559
0.00264849304077953
0.003164024283993335
0.003489980390608073
0.003688335873330784
0.003803613253161917
0.003864551599637932
0.003889209801115083
0.003889069185135721
0.003871724281989035
0.003842461026657912
0.00380511792597881
0.003762757619943499
0.003717891848704284
0.003672839343851595
0.003629812259898803
0.003590937946265833
0.003558215590154366
0.003533486640992528
0.003518402984605081
0.003514337044634934
0.003522317092973638
0.003543039503253537
0.00357689282719809
0.003623966974934834
0.003684175776792927
0.003757302151280914
0.003842859862679085
0.003940204204116289
0.00404891489653867
0.005583932722584817
0.005173137786332646
0.004724026873303818
0.004257505561523969
0.003792892944224145
0.00334606364766554
0.002928261736269609
0.00254546705241644
0.002197249842092486
0.001877941856768002
0.001580875088854357
0.001302599724061639
0.001044352977631062
0.0008126200708300581
0.000615310389293463
0.000454900954655034
0.0003279052383906496
0.0002271155355804147
0.0001484376785504629
9.214784749092882e-05
5.555241969041229e-05
3.246323262925498e-05
1.792552417175146e-05
8.765428099939031e-06
3.506167954595572e-06
1.019188843482153e-06
2.02723296513742e-07
2.736581486220512e-08
3.586271034722587e-09
1.85011688556968e-09
1.787484430343658e-09
1.786243781277156e-09
1.786024878787414e-09
1.785847721847455e-09
1.785696647427109e-09
1.785565531329705e-09
1.785450124057693e-09
1.785346817766684e-09
1.785252678191183e-09
1.785164884041302e-09
1.785080961528842e-09
1.784998750395087e-09
1.784916080555835e-09
1.784830991562424e-09
3.367079619053462e-05
3.540738276665214e-05
0.0002539230896573683
0.0009431552930139382
0.001911486292493495
0.002678506156934561
0.003191356742410297
0.003513748689403877
0.003708717290123704
0.003821065470955475
0.003879527866816753
0.003902080316144384
0.003900139436097836
0.003881253868838402
0.003850664326830918
0.003812178941724283
0.003768852628527511
0.003723210689240759
0.00367757714843671
0.003634148409744644
0.003595031660297438
0.003562224373022127
0.003537544045820037
0.003522582401027011
0.003518671672379784
0.003526805773137818
0.003547619945524863
0.003581450823523571
0.003628350014790719
0.003688145409117912
0.003760536742541965
0.003845074354500281
0.003941170951004619
0.00404822182172161
0.004165596781325615
0.004292754745663054
0.004429570146684976
0.006319778873552823
0.00612651596463148
0.005855971273407179
0.005511247390629628
0.005106272500991389
0.004661921974130677
0.004198994963759736
0.003736802017293673
0.00329100020492639
0.002872998282466916
0.002489082221838101
0.002139724319688129
0.001820690848513009
0.001526297736053291
0.001253024822540367
0.001001526229527824
0.0007773679180173477
0.0005872697750039073
0.0004330001159764621
0.0003110081116640938
0.000214260246307365
0.0001393224319141423
8.62248626849875e-05
5.187502022114789e-05
3.027639750974614e-05
1.674462721682594e-05
8.27600028463354e-06
3.386364736273452e-06
1.007107839989357e-06
2.022339110825312e-07
2.808273043301211e-08
3.754310806280331e-09
1.862817357860913e-09
1.787915375879167e-09
1.786272164866757e-09
1.786046908168642e-09
1.785869144449976e-09
1.785717923779034e-09
1.785587019784068e-09
1.785472140344434e-09
1.785369615564624e-09
1.785276492096065e-09
1.785189933666926e-09
1.785107459075736e-09
1.785026896474156e-09
1.784946071872787e-09
1.784863021279999e-09
1.784775816869284e-09
3.421667450916763e-05
3.609081530328777e-05
0.0002595882588984301
0.0009632539977497881
0.001942013972920892
0.002709006278106981
0.003218911134321895
0.003537490822058864
0.003728892509327632
0.003838184982208518
0.003894084349267972
0.003914474830753651
0.003910683082620566
0.003890208562026125
0.003858266511163617
0.003818632609949239
0.003774353407521194
0.00372794609276896
0.003681750777927758
0.003637966012014531
0.003598676629387084
0.003565851926232076
0.003541295321954168
0.003526563340411053
0.003522921225423888
0.003531314983542198
0.003552341299950189
0.003586279589756244
0.003633129050726
0.003692675000751296
0.003764546787328321
0.003848256494901296
0.00394326321638671
0.004048955179228505
0.004164677819527303
0.00428984239591951
0.004423949880457381
0.004566334248333402
0.004716018013251221
0.00487254157669574
0.00503467584553666
0.006361628484330516
0.006410340959123373
0.006411915475824884
0.006356678402179297
0.006235044232107738
0.006041259715636056
0.005773542748018984
0.005434331811158512
0.005035294458262472
0.004595381784396477
0.004135878696898348
0.003676193420983453
0.003231900898759988
0.002814428769175582
0.002430342089291387
0.002080831141638991
0.001762794636695061
0.001471435925572819
0.001203306961092673
0.0009586173307950517
0.0007420654633351262
0.0005592165996705453
0.0004111491489902825
0.0002942023687648282
0.0002015733632131792
0.0001304264831069485
8.050040841041965e-05
4.834384108840192e-05
2.817877576385601e-05
1.55966407627169e-05
7.775317706936716e-06
3.250107808966666e-06
9.907343424102684e-07
2.017433188613133e-07
2.846538345363596e-08
3.911193733505875e-09
1.876802911851505e-09
1.788464819630862e-09
1.786304011147308e-09
1.78606917423332e-09
1.785890761649609e-09
1.785739399941487e-09
1.785608681195541e-09
1.785494321612277e-09
1.785392573018282e-09
1.785300464508699e-09
1.785215145139105e-09
1.785134125971314e-09
1.785055225556761e-09
1.784976265733613e-09
1.78489527944005e-09
1.784810336045272e-09
1.784719475269109e-09
1.784620846167347e-09
3.478192750719756e-05
3.680248882512101e-05
0.000265513453581027
0.0009841707447424011
0.001973357956151781
0.002739990746884928
0.003246657956374891
0.003561210928805438
0.003748856896205492
0.003854958527287061
0.00390820221957153
0.003926367463503474
0.003920684735507126
0.003898584046584424
0.003865258355809602
0.003824464778167173
0.003779241870052647
0.003732099037409288
0.003685370423767508
0.003641268328125176
0.00360187179399844
0.003569117735097078
0.003544770920918854
0.003530360707122283
0.00352710734089943
0.003535883796777922
0.00355723581864056
0.003591406533735983
0.003638340785523306
0.003697773956513772
0.00376929716687406
0.003852369453245231
0.003946440789310141
0.004050933799016833
0.004165170363485613
0.004288533256193821
0.004420446548257205
0.004560255080993384
0.004707161400592448
0.004860296741713168
0.005018749455293721
0.005181165503380635
0.005345922095629453
0.005510823694162306
0.005673240069569388
0.005829782144792371
0.005976208492338373
0.006107287189757333
0.006216633782598335
0.006296263562082339
0.006338151302050505
0.006334139633094776
0.006274384721208159
0.006150296754825986
0.005955917143729812
0.005689479433637853
0.005354093868653068
0.004959915904451334
0.004524221141770961
0.00406800369907822
0.003610942665381118
0.003168574163491186
0.002752308714070598
0.002368931759074386
0.002020214701460439
0.001703946350954923
0.001416085416418597
0.001153351132402316
0.0009156207873280963
0.0007067614175769872
0.0005312247503810922
0.0003894420496350618
0.0002775545820538647
0.0001891275903365398
0.0001218007975059565
7.50016032354359e-05
4.497307323737262e-05
2.618077591562463e-05
1.44936276014928e-05
7.274769151226052e-06
3.10099581052901e-06
9.701558891440994e-07
2.00928582510871e-07
2.849845783998949e-08
4.052967843535624e-09
1.891943837278165e-09
1.789152387884148e-09
1.78634074497091e-09
1.786091702582998e-09
1.785912568701502e-09
1.785761053923364e-09
1.785630532520524e-09
1.785516658989168e-09
1.785415679738642e-09
1.78532458364193e-09
1.785240505468788e-09
1.785160947676082e-09
1.785083721789139e-09
1.785006644622281e-09
1.784927746124493e-09
1.784845093868689e-09
1.784756735168038e-09
1.784660806165327e-09
1.78455518536065e-09
3.53679777824546e-05
3.754488594984707e-05
0.0002717191850295397
0.001005960200322014
0.002005560992115449
0.002771448796911375
0.003274576749284378
0.003584875942286758
0.003768607261004598
0.003871377112367957
0.003921865165465281
0.003937737869661276
0.003930119333890342
0.003906367175368988
0.003871635833972166
0.003829668072826088
0.003783507063756584
0.003735655909642628
0.003688442395724549
0.003644070918698791
0.003604626427987396
0.003572028064078132
0.003547995966119342
0.003534009650166479
0.003531250612044318
0.003540538115307442
0.003562344227456777
0.00359686529320117
0.00364401180774305
0.003703470029140663
0.003774786852881325
0.003857387890384441
0.003950691933791261
0.004054124346701097
0.004167021148091656
0.004288736636692929
0.004418661310054963
0.004556110203352955
0.004700328631284747
0.004850420203132619
0.005005356645048321
0.005163838029381813
0.005324198935909571
0.005484327787475976
0.005641489898053242
0.005792331010132586
0.005932637551858928
0.006057234710722868
0.006159866845828097
0.006233076894499397
0.006268684815079997
0.006258423145003847
0.006193573009737644
0.006065944831678776
0.0058698594427385
0.005603617443909155
0.005270568629968681
0.004880155838253059
0.004448237422143971
0.00399520170214
0.003540875473838057
0.003100821883393468
0.002686410650651521
0.002304590838689704
0.001957594622895568
0.001643906986687527
0.001360108830618638
0.001103131377271984
0.0008725927732523907
0.0006715538764126515
0.0005034032980903648
0.000367964275229654
0.0002611332370727214
0.0001769874939566216
0.0001134942756809142
6.975210582279072e-05
4.177366312659455e-05
2.428934457748499e-05
1.344382713925763e-05
6.783484455066029e-06
2.942841434207527e-06
9.455738867983119e-07
1.996501471950827e-07
2.843288362230622e-08
4.176170835480852e-09
1.908063403293993e-09
1.789997258934215e-09
1.786384181477642e-09
1.786114538227612e-09
1.785934561130306e-09
1.785782879967126e-09
1.785652543610806e-09
1.785539154598905e-09
1.785438925609443e-09
1.785348838013988e-09
1.785266001380804e-09
1.785187909952781e-09
1.785112369476011e-09
1.785037190896442e-09
1.784960402181928e-09
1.784880068891436e-09
1.78479424376976e-09
1.784701054694083e-09
1.784598384407918e-09
1.78448414215608e-09
3.597873340005204e-05
3.832096256745326e-05
0.0002782293827341337
0.001028678022677129
0.002038658272352029
0.002803404147013778
0.003302632725944575
0.003608457435206522
0.003788112295787694
0.003887432933191744
0.003935060925552631
0.003948568283845154
0.003938966547146797
0.003913534468219709
0.003877387854709724
0.003834240284738749
0.0037871449911507
0.003738610234734953
0.003690959227915912
0.003646386530760673
0.003606962385889874
0.003574599043634901
0.003550984416121818
0.00353754093331199
0.003535390651108143
0.003545303540990871
0.003567695860693859
0.003602697401415874
0.003650175473374438
0.003709786785862782
0.003781035698381858
0.003863306407143327
0.003955999063020158
0.004058521883201254
0.004170206970706824
0.004290415090026921
0.004418504804926462
0.004553762571566999
0.004695431249905569
0.004842604782573361
0.004994214880530948
0.005148926651079949
0.005305061700289646
0.005460525445822861
0.005612568518835521
0.005757762012501879
0.005891963130738239
0.006010043638676992
0.006105858636804522
0.006172218783139887
0.006201108298736123
0.006184287647010209
0.006113617127670988
0.005981577656450838
0.005782784473088952
0.005515704150508987
0.005183746066990203
0.004795970715201691
0.004367241639599184
0.00391725952040492
0.003465804002905213
0.003028461018770139
0.002616555117107175
0.002237135417299431
0.00189278927059623
0.001582539378193759
0.00130346445680662
0.001052707238190679
0.0008296568503028034
0.0006365888472950875
0.0004758920242889352
0.0003468257546608387
0.0002450439158849143
0.0001652181990598705
0.0001055499450663928
6.47708014320782e-05
3.875313172971137e-05
2.250841713215362e-05
1.245152892106401e-05
6.308354335726091e-06
2.779392459502981e-06
9.173036677958283e-07
1.978908893067566e-07
2.836715336984007e-08
4.279165910722033e-09
1.924943496783787e-09
1.791017267893148e-09
1.786436559180385e-09
1.786137753697607e-09
1.785956734638349e-09
1.785804871897633e-09
1.785674707688298e-09
1.785561790785234e-09
1.785462304242871e-09
1.785373215737357e-09
1.785291619865982e-09
1.78521499842742e-09
1.785141152532982e-09
1.785067887205184e-09
1.784993228329729e-09
1.784915240361072e-09
1.784831979155276e-09
1.784741568061065e-09
1.784641892944109e-09
1.784530865625031e-09
1.784406187202252e-09
3.661024249201476e-05
3.913114072517055e-05
0.0002850719099110746
0.001052387726971121
0.002072681279864559
0.002835866438423978
0.003330839941961482
0.003631926616055698
0.003807340379176391
0.003903098297706194
0.003947778788195568
0.003958844456266757
0.003947208713662854
0.003920067065044747
0.003882492952823852
0.003838173664992737
0.003790157245734516
0.003740962856005873
0.00369292044434125
0.0036482154082814
0.003608899720772928
0.003576859442252714
0.003553759688629057
0.003540976140633371
0.003539563564891484
0.003550223431291332
0.003573320305850927
0.003608934716956836
0.003656873077055591
0.003716755865219748
0.003788063599387703
0.003870139049606408
0.003962355391491978
0.004064112988364787
0.0041747230457779
0.004293543957031607
0.004419933664837859
0.004553140268664365
0.004692391321042716
0.004836768296568133
0.004985172359674116
0.00513624282838466
0.005288259533491334
0.005439110191191983
0.005586063397846524
0.005725661842012105
0.005853724678588775
0.005965204935377446
0.006054044479355096
0.006113239177247543
0.006135000637209336
0.006111246920349648
0.006034166548545884
0.005896849642870708
0.005694374980229143
0.005425415201648328
0.00509343753252137
0.004707243371911482
0.004281049287788418
0.003833966673238974
0.003385561301881787
0.002951361735055373
0.002542641586913097
0.002166488908852061
0.001825745554535651
0.001519838519824646
0.00124622843722931
0.00100223113748853
0.0007870017786429765
0.000602052608897396
0.0004488520644332746
0.0003261501139127466
0.0002293981303245223
0.0001538987798436428
9.800259437201118e-05
6.007083782596492e-05
3.591549813751097e-05
2.083949643170963e-05
1.151893851271074e-05
5.854247552673197e-06
2.614101250417934e-06
8.857660426408846e-07
1.956387680454987e-07
2.830127160591452e-08
4.360844867193912e-09
1.942341643130181e-09
1.792227994622964e-09
1.786500555859381e-09
1.786161459402025e-09
1.785979085996791e-09
1.785827023690855e-09
1.785697017576865e-09
1.785584559362796e-09
1.785485804050431e-09
1.785397705039396e-09
1.785317347556393e-09
1.785242198744561e-09
1.785170055049192e-09
1.785098715777957e-09
1.785026205513362e-09
1.784950587324455e-09
1.784869919619667e-09
1.784782323045177e-09
1.78468568585529e-09
1.784577923126333e-09
1.784456738247067e-09
1.78431962481082e-09
3.725762894482403e-05
3.995572793305255e-05
0.0002922519249472647
0.00107716036817966
0.002107666072157816
0.002868839541768542
0.00335919119160046
0.003655270332597181
0.003826258110260777
0.003918341920326705
0.003959994821931104
0.00396855418125136
0.003954831006671758
0.003925948847230252
0.003886935191314818
0.003841450405510369
0.003792540768376916
0.003742720886705949
0.003694333206364461
0.003649564590362977
0.003610447581703704
0.003578837129375631
0.00355635764983496
0.003544345904587343
0.003543798076782267
0.00355533848052316
0.003579263600965611
0.003615609740272213
0.003664138054832721
0.003724417358465572
0.003795899655659184
0.003877902201149472
0.003969770975275776
0.004070890358774989
0.00418055707098944
0.004298114709946207
0.004422916617274939
0.004554195585417252
0.004691147376258616
0.004832835285690594