/*--------------------------------*- C++ -*----------------------------------*\
| =========                 |                                                 |
| \\      /  F ield         | OpenFOAM: The Open Source CFD Toolbox           |
|  \\    /   O peration     | Version:  2006                                  |
|   \\  /    A nd           | Website:  www.openfoam.com                      |
|    \\/     M anipulation  |                                                 |
\*---------------------------------------------------------------------------*/
FoamFile
{
    version     2.0;
    format      ascii;
    class       volScalarField;
    location    "518";
    object      nut;
}
// * * * * * * * * * * * * * * * * * * * * * * * * * * * * * * * * * * * * * //

dimensions      [0 2 -1 0 0 0 0];


internalField   nonuniform List<scalar> 
28642
(
2.231427336500819e-11
2.265563679754486e-11
1.367156011868494e-10
2.300093224367035e-11
1.391860897630361e-10
2.925999082802102e-09
2.334965679437197e-11
1.416853263033193e-10
2.982725963298386e-09
2.284644735242402e-08
2.370311229776051e-11
1.442273100697437e-10
3.040397487153275e-09
2.326412133091746e-08
8.223410641993515e-08
2.40643662067151e-11
1.468216719969955e-10
3.099401735829453e-09
2.368935995195232e-08
8.347645301883465e-08
1.80171011644125e-07
2.443256035318461e-11
1.494696053421288e-10
3.159983833563276e-09
2.412519148365772e-08
8.473926997991059e-08
1.82218635654909e-07
3.034145963167647e-07
2.480651790869191e-11
1.521760165343443e-10
3.222109415738687e-09
2.457349401935755e-08
8.603214767488467e-08
1.843049120778212e-07
3.066494204864098e-07
4.568572211913946e-07
2.518951946623266e-11
1.549500564286044e-10
3.285943356569085e-09
2.503386841160366e-08
8.736073804353665e-08
1.86442865967066e-07
3.099519305986404e-07
4.61576599476179e-07
6.408830266101462e-07
2.558284072841064e-11
1.577937818147926e-10
3.351796820379102e-09
2.55075228676723e-08
8.872329872252688e-08
1.886437220826745e-07
3.133381306494807e-07
4.663981880319068e-07
6.474081613489191e-07
8.555286055758553e-07
2.598440922660802e-11
1.60711927268325e-10
3.419673377847809e-09
2.599695157720812e-08
9.012282300770165e-08
1.909048705635835e-07
3.168268898421082e-07
4.713419348925269e-07
6.540613238192545e-07
8.641924383933983e-07
1.101135040805626e-06
2.639477223449502e-11
1.637083731508632e-10
3.48967548828789e-09
2.650216888325731e-08
9.156671366123613e-08
1.932288249439725e-07
3.204175717600901e-07
4.764378978101535e-07
6.608783065313354e-07
8.729939216477663e-07
1.112230318453715e-06
1.378926303487415e-06
1.674889787209127e-06
0.0001317168062623969
2.681680015712382e-11
1.667951514516449e-10
3.562000896221454e-09
2.702378201108903e-08
9.305490031506064e-08
1.956280544330736e-07
3.24113267757104e-07
4.816915062622584e-07
6.67906286813682e-07
8.820080461735967e-07
1.123499637224149e-06
1.392655751737841e-06
1.691048521900663e-06
2.020671590310928e-06
0.0001452644866931687
0.0001301725895305899
0.0001178860418791537
2.725223951572584e-11
1.699773406997497e-10
3.636993972854557e-09
2.756340841044006e-08
9.458836581979237e-08
1.981048623852591e-07
3.279313386835668e-07
4.871083596768779e-07
6.751613297890909e-07
8.91303445372062e-07
1.135057799327108e-06
1.406714609416844e-06
1.70761393027615e-06
2.039839978839101e-06
2.402299866299239e-06
0.0001436331233464502
0.0001286892003594568
0.000116557305305436
0.0001066757260615191
2.769970103379191e-11
1.732603289248075e-10
3.714756168623491e-09
2.812367286694958e-08
9.617146240420117e-08
2.006594354714293e-07
3.31877886744456e-07
4.92710146212555e-07
6.826548684890094e-07
9.009094357184524e-07
1.146986235670026e-06
1.421201905500567e-06
1.724845023946469e-06
2.059843159908946e-06
2.426079753135093e-06
2.830077152509729e-06
0.0001595512446290862
0.0001420226261662034
0.0001272363115523769
0.0001152643024730746
0.0001055180351448239
9.552108887594942e-05
2.815944690579227e-11
1.766506016418346e-10
3.795413133679128e-09
2.870530037786355e-08
9.781167483680653e-08
2.032971621284632e-07
3.359544451350627e-07
4.985077048271341e-07
6.904129378604076e-07
9.108471024272579e-07
1.159325253732924e-06
1.436178377685651e-06
1.742718957644141e-06
2.080837027877383e-06
2.45090018159077e-06
2.858663890888886e-06
3.313008297355227e-06
0.0001577499204313984
0.0001404285824948226
0.0001258030913889443
0.0001139935820790201
0.0001043744267371653
9.385784703775925e-05
6.221792858158049e-05
2.86327727337874e-11
1.801577086678313e-10
3.87921840130479e-09
2.930909343407195e-08
9.951081983302224e-08
2.06031327610461e-07
3.401675704636189e-07
5.045064242181541e-07
6.984512963566148e-07
9.211478781926769e-07
1.172108456279022e-06
1.451687711793506e-06
1.761240025175429e-06
2.102699479494397e-06
2.476627633037748e-06
2.888524308501336e-06
3.3473309662651e-06
3.861304805571481e-06
0.0001743557554457773
0.0001559402155138826
0.0001388303205208058
0.0001243825057751876
0.000112735950856421
0.0001032359169947241
9.222832747286745e-05
6.099675179615775e-05
3.734623310109815e-05
2.912281641144343e-11
1.837954205851242e-10
3.966470926661986e-09
2.993695166840507e-08
1.012704042373446e-07
2.088673234734652e-07
3.445363598053343e-07
5.107145491763899e-07
7.067819371247838e-07
9.318324398051321e-07
1.185374358573046e-06
1.467776806245805e-06
1.780448524583499e-06
2.125407378427554e-06
2.503353029261044e-06
2.919581768159294e-06
3.383197272396106e-06
3.902506085030643e-06
4.48804563173899e-06
5.154254985646885e-06
0.0001723167838763921
0.0001541262705748182
0.0001372248670446075
0.0001229677067033703
0.0001114846741186532
0.0001020961635464684
9.060118964859572e-05
5.974487075545529e-05
3.659989473898532e-05
2.963112022216384e-11
1.875715075062291e-10
4.057561183555059e-09
3.059113023437711e-08
1.030950372663069e-07
2.118069771898887e-07
3.490715186699479e-07
5.171563079614253e-07
7.154164540713016e-07
9.429218992600591e-07
1.199149690963909e-06
1.484492416425078e-06
1.800403572218302e-06
2.149000403543985e-06
2.531155085514919e-06
2.951939363849225e-06
3.420606602712683e-06
3.945574314074434e-06
4.537480840233083e-06
5.209862907883956e-06
5.979545464213119e-06
0.0001873342024879295
0.0001702620392090951
0.0001522869041687392
0.0001356107880737636
0.0001215536238722907
0.0001102345378709486
0.0001009504143800691
8.890686613665078e-05
5.845980804124312e-05
3.580169036851706e-05
2.122381471360775e-05
3.015694372817031e-11
1.914948898154658e-10
4.15266886343301e-09
3.127449776417119e-08
1.049906767649793e-07
2.148557587815274e-07
3.537778185808702e-07
5.23848725624519e-07
7.243837601399345e-07
9.544337176900603e-07
1.213466989898789e-06
1.5018701445412e-06
1.821160681597724e-06
2.173551610354505e-06
2.560080690605758e-06
2.985681789573358e-06
3.459693904454228e-06
3.990618465049064e-06
4.589237495993864e-06
5.268998462198137e-06
6.046607937682336e-06
6.942241327565816e-06
0.0001992746286603111
0.0001852106982634739
0.0001682062105501352
0.0001504218301078372
0.0001339838494639369
0.0001201361403519691
0.0001089812338396628
9.979493435877552e-05
8.708867311891676e-05
5.70932566011081e-05
3.493747787943118e-05
2.07750494527586e-05
1.188310644952486e-05
1.771493676430296e-09
3.07012785469685e-11
1.955768783177568e-10
4.252041249088907e-09
3.198826481242417e-08
1.069649198417636e-07
2.180236168472156e-07
3.586625334342234e-07
5.30802322446453e-07
7.337072623010883e-07
9.664018672272491e-07
1.228352169987179e-06
1.519957114868065e-06
1.842768401078093e-06
2.19913086710471e-06
2.590238390160915e-06
3.020866296755563e-06
3.500559475569459e-06
4.037819898639131e-06
4.64353978392207e-06
5.331315407071479e-06
6.117811841811773e-06
7.023253606820535e-06
8.07159185789435e-06
9.289765044313326e-06
0.0002087846624934246
0.0001974529477344446
0.0001831072407982826
0.0001661156711029448
0.0001485329226216834
0.0001323408332542315
0.0001187114520666457
0.0001077209713355998
9.862652473714202e-05
8.509860218500942e-05
5.561473156952925e-05
3.399912890631231e-05
2.025508390640339e-05
1.165753974224999e-05
6.196535993484558e-06
1.312507270827462e-09
1.514323192049155e-09
1.779615258712415e-09
2.117158512990913e-09
2.528096513918948e-09
2.987873812795789e-09
3.126541829870836e-11
1.998298913085785e-10
4.356066923733518e-09
3.273408949625101e-08
1.090204702235761e-07
2.213237545098299e-07
3.63739673319485e-07
5.380276180366675e-07
7.43405863238619e-07
9.78855671242084e-07
1.243845450323066e-06
1.538789451145968e-06
1.865292274235203e-06
2.225799344055703e-06
2.621742941025526e-06
3.057623201365271e-06
3.543276271386992e-06
4.087304636285007e-06
4.700617408438482e-06
5.396946676947989e-06
6.193136002651852e-06
7.109423514790309e-06
8.169826150637509e-06
9.401910886371637e-06
1.083678537009921e-05
0.000217292037915226
0.0002075069881457798
0.000195634505197918
0.0001809698443733216
0.0001639948810720229
0.000146615761826412
0.000130679158031488
0.0001172761539244479
0.0001064502810411906
9.744225632672214e-05
8.290427270177755e-05
5.400500361684484e-05
3.298057477139659e-05
1.96697840289474e-05
1.137474769848283e-05
6.110412603734099e-06
2.819553337425299e-06
7.321149185907658e-09
1.419762444960402e-09
1.320280129548371e-09
1.51042380515612e-09
1.774751988167124e-09
2.11165078932869e-09
2.522738507258023e-09
3.005769649688893e-09
3.582158042638888e-09
4.309923038414127e-09
3.185122678459692e-11
2.042678209642344e-10
4.465127433806733e-09
3.351472955878457e-08
1.111608786468556e-07
2.247628752666638e-07
3.690291147560337e-07
5.455426174046451e-07
7.534958032309217e-07
9.918243637099067e-07
1.259982136323621e-06
1.558414990309925e-06
1.888779460578911e-06
2.253641036428982e-06
2.654639372389594e-06
3.096090768582848e-06
3.588001023566077e-06
4.139168885844548e-06
4.760630613874735e-06
5.466155655120991e-06
6.272754667272271e-06
7.200885713893465e-06
8.274603742789933e-06
9.521742162735423e-06
1.097358824146641e-05
1.266459237580292e-05
0.0002248143066986061
0.0002164969191224988
0.0002061941089129899
0.0001937816846511553
0.000178810342997908
0.0001618450270481335
0.0001446702647751264
0.0001289965145673009
0.0001158267306731701
0.0001051660266185712
9.623933182487267e-05
8.046397884657012e-05
5.223858383697101e-05
3.187201196843642e-05
1.90202346651589e-05
1.104019408517246e-05
5.983118021181525e-06
2.801952958827643e-06
1.07472576530122e-06
3.164838731946004e-07
6.332140647617237e-08
8.031727267092139e-09
1.471545511974028e-09
1.318767766770323e-09
1.517199920740087e-09
1.782808881987143e-09
2.12248082048302e-09
2.537228731979775e-09
3.047565158294629e-09
3.603407754663799e-09
4.33538141750462e-09
5.268609835160547e-09
6.468926902893422e-09
3.246216025665749e-11
2.089115352766556e-10
4.5796428232493e-09
3.433290502224505e-08
1.133924778592741e-07
2.283460694388154e-07
3.74543553289756e-07
5.533740160411769e-07
7.639999010606109e-07
1.005332735563432e-06
1.276803639570601e-06
1.578876766636756e-06
1.913287390830209e-06
2.282718149435494e-06
2.689015048865809e-06
3.136333028261526e-06
3.634901256861189e-06
4.193602577086033e-06
4.823708261927826e-06
5.539145005769466e-06
6.356984855458806e-06
7.297888558604419e-06
8.386166544139864e-06
9.649736174858587e-06
1.112011515979198e-05
1.283120019424037e-05
1.482175397360122e-05
1.71291161370771e-05
0.0002303866750725012
0.0002242157590741159
0.0002156083047214383
0.0002047928768901047
0.0001918658075969371
0.0001766044419847131
0.0001596557670746349
0.0001426919086848144
0.0001272897792726102
0.0001143600923252106
0.0001038650482862313
9.501511859374264e-05
7.781775201881639e-05
5.034468864794078e-05
3.069247110834116e-05
1.832169436965302e-05
1.065821332529486e-05
5.81902273595015e-06
2.763833678934744e-06
1.076732854285151e-06
3.177314263655032e-07
6.603630874738734e-08
8.699117986777551e-09
1.520675026718841e-09
1.327123842077001e-09
1.513322878495928e-09
1.791272111568727e-09
2.1163498068992e-09
2.53085269878428e-09
3.041745429671699e-09
3.650646427097709e-09
4.360670467231761e-09
5.299208517641773e-09
6.50635354367959e-09
8.069854390141404e-09
3.3100544711315e-11
2.137749745462575e-10
4.700203671524542e-09
3.519159123615398e-08
1.157217516993058e-07
2.320817184388871e-07
3.80292609498647e-07
5.615418071000377e-07
7.74951815882248e-07
1.019410271434658e-06
1.294345894796357e-06
1.60023150323863e-06
1.938871108424898e-06
2.313105345875469e-06
2.724971844284128e-06
3.178461910640462e-06
3.68406674700112e-06
4.250810485910323e-06
4.890082923283675e-06
5.616088271712617e-06
6.446087202457141e-06
7.400826682106532e-06
8.504851486235424e-06
9.786358110743744e-06
1.127692829950576e-05
1.301030696838562e-05
1.502418608273157e-05
1.735785195243679e-05
2.004975826490832e-05
2.313501490798743e-05
0.0002347504256455883
0.0002336378713230541
0.0002298468185233775
0.0002234695435992445
0.000214522788062829
0.0002032622730731891
0.0001898642221982441
0.0001743379158667482
0.000157420010401546
0.000140676870746632
0.0001255559989722599
0.000112873287336623
0.0001025445953470735
9.376726732743608e-05
7.495369251502644e-05
4.832096602260076e-05
2.944273581441536e-05
1.757915708632525e-05
1.024135903848347e-05
5.622578792117081e-06
2.706316011181374e-06
1.072300825061723e-06
3.191286096443805e-07
6.7826683499649e-08
9.300315674020762e-09
1.58000483044896e-09
1.326559248274629e-09
1.519942705724479e-09
1.785866670359163e-09
2.1104774288165e-09
2.524310333522232e-09
3.035429020599764e-09
3.645844579913612e-09
4.414740295812739e-09
5.329495046001932e-09
6.543187097107159e-09
8.189936463838902e-09
1.016243341683115e-08
1.28414839537867e-08
3.376646941382482e-11
2.188735234183989e-10
4.827186052772539e-09
3.609480843235169e-08
1.181558607296091e-07
2.359803588854028e-07
3.862883595960254e-07
5.700630761493701e-07
7.863795112466218e-07
1.034098185027261e-06
1.312647622245182e-06
1.622528294784742e-06
1.96560752435377e-06
2.344874189926098e-06
2.762628950932665e-06
3.222607764950971e-06
3.735640930639212e-06
4.310917539002895e-06
4.960007646136415e-06
5.697273590065751e-06
6.540296702597573e-06
7.510040947955035e-06
8.631156300508305e-06
9.932090152074691e-06
1.144468769049176e-05
1.320250337571235e-05
1.52429049970667e-05
1.760528687908956e-05
2.032774752494336e-05
2.344666151060622e-05
2.699831628904199e-05
3.10086037500089e-05
0.0002328675723840382
0.0002345769223916719
0.0002332970079325499
0.0002291850566194656
0.0002224796439340665
0.0002132152932951041
0.0002015623583809828
0.0001877515738644666
0.000171997753525298
0.0001551310687055609
0.0001386217129875855
0.0001237927553905201
0.0001113639185497155
0.0001012024123392685
9.249391422172312e-05
7.188985963533083e-05
4.618444472612554e-05
2.813395058253367e-05
1.680157425412914e-05
9.796255555149898e-06
5.401358624468923e-06
2.631219010417428e-06
1.061277486748885e-06
3.202147256133896e-07
6.863890426071229e-08
9.814352481819954e-09
1.635479673912685e-09
1.335599148536112e-09
1.526921791005989e-09
1.793980063930616e-09
2.120380506751916e-09
2.537325452798508e-09
3.028640808814367e-09
3.640227590107612e-09
4.410968147082593e-09
5.391995849224602e-09
6.579686584455822e-09
8.159944224947592e-09
1.021810524032814e-08
1.29115022932919e-08
1.645182005922565e-08
3.446176841315161e-11
2.242239662627886e-10
4.961035410776729e-09
3.704503412426449e-08
1.207042807266684e-07
2.400540100278693e-07
3.925460078705622e-07
5.789555295928335e-07
7.983103680498325e-07
1.049432711221276e-06
1.331759028444007e-06
1.645817675493629e-06
1.993560285763635e-06
2.378123607559267e-06
2.802063773478929e-06
3.268919111468952e-06
3.789790847625692e-06
4.374108472233469e-06
5.033655378127768e-06
5.783017271231349e-06
6.639974688359638e-06
7.625850597822174e-06
8.765530110005204e-06
1.008756863593355e-05
1.162404742243283e-05
1.340855735482735e-05
1.547825345725898e-05
1.787238711400554e-05
2.062908172278132e-05
2.378454159995001e-05
2.737290986702884e-05
3.142297611712947e-05
3.59621363206451e-05
4.100436662280943e-05
0.0002230056253841793
0.0002287338262060309
0.0002328037853765145
0.0002343079339296057
0.0002327607659637249
0.0002283092917602662
0.0002212515913423171
0.0002116680609522979
0.0001996667548614104
0.0001855053794514545
0.0001695716652701313
0.000152782856831256
0.000136523616465587
0.000121998403104172
0.0001098303849447509
9.983697145412462e-05
9.11939045422151e-05
6.865397459843277e-05
4.395877980043238e-05
2.678043176941271e-05
1.599863405476539e-05
9.331399393420836e-06
5.161082064715423e-06
2.541132536107436e-06
1.043767376969158e-06
3.200732439308483e-07
6.876693111077775e-08
1.022380325909703e-08
1.697756491152911e-09
1.336073395312873e-09
1.522533493493056e-09
1.788278221466355e-09
2.114017842281685e-09
2.529926829979462e-09
3.021419091062638e-09
3.633823778002779e-09
4.405985325703255e-09
5.389300835121884e-09
6.65262821032144e-09
8.203989948418943e-09
1.027246457191044e-08
1.297951629777358e-08
1.653852753967935e-08
2.123470370889274e-08
3.518890793812748e-11
2.298483966045773e-10
5.102309072600588e-09
3.804515841188374e-08
1.233723548738858e-07
2.443182363101742e-07
3.990837248065104e-07
5.88239624424364e-07
8.107706009150125e-07
1.065453692423023e-06
1.351725651382298e-06
1.670160926818119e-06
2.022794241218631e-06
2.41293532514391e-06
2.843377783972291e-06
3.317501789868014e-06
3.846703661382808e-06
4.440598174044183e-06
5.111265801352986e-06
5.873557639678484e-06
6.745520821182758e-06
7.748713727467951e-06
8.908405814190381e-06
1.025338532325894e-05
1.181581535592703e-05
1.36292863741752e-05
1.573103829651676e-05
1.816011102514621e-05
2.095441310918878e-05
2.415006788148262e-05
2.778016529599355e-05
3.187273842703253e-05
3.645268743506318e-05
4.153803160207726e-05
4.714119204206404e-05
5.325565680324972e-05
5.984201881623281e-05
0.0002014555762070467
0.000209002173532729
0.0002162884193480391
0.0002231360286033661
0.0002287940265147991
0.0002326501704773383
0.0002339002968260723
0.0002320387051870578
0.0002272258756647195
0.0002197926781162209
0.0002098747143479603
0.0001975570675152273
0.0001831083013722966
0.000167049125712108
0.0001503705325918693
0.0001343809465693307
0.0001201724589296224
0.0001082723237381604
9.844777245979905e-05
8.986700290990001e-05
6.528171900086601e-05
4.167216767578611e-05
2.539855325572986e-05
1.518041417428233e-05
8.854842917527102e-06
4.907979943855752e-06
2.438987462135658e-06
1.020127270210097e-06
3.186371870012813e-07
6.891566177884695e-08
1.051738945062663e-08
1.753927453528009e-09
1.34583188942585e-09
1.529385717259252e-09
1.796044133825342e-09
2.12341265911587e-09
2.522431368792955e-09
3.013877890879009e-09
3.626673181817456e-09
4.399830947466532e-09
5.384900156214925e-09
6.651085539477528e-09
8.289839684595866e-09
1.042205950701694e-08
1.304624800341718e-08
1.662240460863706e-08
2.134252771582116e-08
2.716434009018851e-08
3.595029123773481e-11
2.35771087064713e-10
5.251675940331484e-09
3.909880690042552e-08
1.261661012745394e-07
2.487838717958835e-07
4.059249848364067e-07
5.97940237648252e-07
8.237878141067562e-07
1.082198612921509e-06
1.372602182279799e-06
1.695616046908587e-06
2.053384714205018e-06
2.449394953537279e-06
2.88669012987224e-06
3.368489281200444e-06
3.906524158799018e-06
4.510625212479205e-06
5.193116960919394e-06
5.969208021941713e-06
6.857261870775724e-06
7.87913977188214e-06
9.06036877589644e-06
1.043012306980807e-05
1.202076392835282e-05
1.386569058573492e-05
1.600223694909111e-05
1.846950863613751e-05
2.130500056937492e-05
2.454453977814271e-05
2.822073693512646e-05
3.236018691448581e-05
3.698664639477985e-05
4.211785457402155e-05
4.776106564404314e-05
5.391432224689796e-05
6.055671929022561e-05
6.767956810642918e-05
7.525525461919348e-05
8.318955088012619e-05
9.145346379712074e-05
0.0001702220336130197
0.0001783916650919571
0.0001863695305512177
0.0001941798368563607
0.0002019089248194006
0.0002094197335591724
0.0002166021741420468
0.0002232535849349724
0.0002287572851203132
0.0002323989779867424
0.0002333529184634993
0.0002311360388022725
0.0002259273389220132
0.0002180971431556081
0.00020783360092237
0.0001952250947749755
0.0001805491546534975
0.0001644227925695008
0.000147891344551089
0.0001321938849415409
0.0001183159794613474
0.0001066906358514695
9.703656235038156e-05
8.851447175953382e-05
6.181612713614976e-05
3.935506456833044e-05
2.400547772937654e-05
1.435690786209306e-05
8.373932736565614e-06
4.647779891699135e-06
2.327927638504582e-06
9.909385101852063e-07
3.158589358733807e-07
6.907845880388564e-08
1.068915548377239e-08
1.808607055267841e-09
1.347350247193133e-09
1.525088899580398e-09
1.790067305578733e-09
2.116454116850055e-09
2.514868027706637e-09
3.006030541562718e-09
3.618807383935865e-09
4.392542576269104e-09
5.378833836465742e-09
6.647207429292551e-09
8.289587922443153e-09
1.042755721556778e-08
1.322414071259821e-08
1.670435220958552e-08
2.144635874614752e-08
2.772772116043097e-08
3.532116893458189e-08
4.577385086435774e-08
3.674871300154863e-11
2.420175845570291e-10
5.409851375866753e-09
4.021040464407583e-08
1.290926861861879e-07
2.534606628473008e-07
4.130882942891303e-07
6.080895000496146e-07
8.37394921272216e-07
1.099704975624017e-06
1.39443964053497e-06
1.722257335819361e-06
2.085408407216301e-06
2.487600157168606e-06
2.93213048004122e-06
3.422037282893566e-06
3.96942893932204e-06
4.584387921747025e-06
5.279516302021168e-06
6.070330470197797e-06
6.975609917551025e-06
8.017574111362501e-06
9.222072174208822e-06
1.061853265664866e-05
1.223966868232619e-05
1.411875691377788e-05
1.629306357177768e-05
1.880178416614356e-05
2.168219539276648e-05
2.496958359669933e-05
2.869603180530711e-05
3.288705808917215e-05
3.756495239473513e-05
4.27465907793712e-05
4.843740271287552e-05
5.463461171635189e-05
6.132305060439186e-05
6.847775083311205e-05
7.607195949316004e-05
8.404668501907896e-05
9.233822813615112e-05
0.0001009286722093107
0.0001097348078190412
0.0001186262296670828
0.0001275681948111372
0.0001364903780079702
0.0001453297170461342
0.0001540341302662628
0.0001625659120378795
0.0001709093291080111
0.000179042548519021
0.0001869854678211917
0.000194755948012772
0.0002023915591433299
0.0002098168385887611
0.0002168812410990428
0.0002233409112593012
0.00022864474279655
0.0002320426108804597
0.0002326611966600488
0.0002300438685853506
0.00022440647067565
0.000216161291641937
0.0002055467070260579
0.0001926706463952264
0.0001778238099137731
0.000161689625027195
0.0001453455755238702
0.0001299650263623509
0.0001164318686984922
0.0001050874315378298
9.560545558471896e-05
8.598694661105822e-05
5.830301610455144e-05
3.703806858230385e-05
2.261793605718323e-05
1.353756461841385e-05
7.893963932646201e-06
4.385103270809239e-06
2.21101176709266e-06
9.569684184420711e-07
3.11726487487805e-07
6.914027388817185e-08
1.073248649654552e-08
1.86008050002359e-09
1.350037512311753e-09
1.521450907736772e-09
1.784497151832611e-09
2.109685808490058e-09
2.507262054962045e-09
2.997868298810771e-09
3.610365654078445e-09
4.384153015185118e-09
5.371140152281701e-09
6.641030064328402e-09
8.286179493135642e-09
1.042880200720898e-08
1.306134976432716e-08
1.659381264853215e-08
2.127422721313461e-08
2.74961214188835e-08
3.568870637277127e-08
4.623613181556549e-08
6.030523129830509e-08
3.758732952929014e-11
2.486179321500456e-10
5.577601562699222e-09
4.138455909225388e-08
1.321617818660823e-07
2.583567575766037e-07
4.205893443939687e-07
6.1871481701056e-07
8.516338331209462e-07
1.118015877029253e-06
1.417288738010126e-06
1.750151722875629e-06
2.118966563299788e-06
2.527653283820401e-06
2.97984538750547e-06
3.478315180745383e-06
4.03562292625601e-06
4.662121756629697e-06
5.370735748917777e-06
6.177325046805001e-06
7.101039041845313e-06
8.164560657078296e-06
9.394118764922835e-06
1.08194536611239e-05
1.247349210701635e-05
1.438949456141344e-05
1.660475582332917e-05
1.915841070608436e-05
2.208749661924265e-05
2.542690397029005e-05
2.920797041759435e-05
3.345511196317338e-05
3.818948497095751e-05
4.342653840881696e-05
4.917027022744652e-05
5.541682455678707e-05
6.215170722096703e-05
6.934708302954336e-05
7.696985533728676e-05
8.497202404467552e-05
9.329031732097966e-05
0.0001018735483488165
0.0001106627371889921
0.0001195594169605675
0.0001284822488543042
0.0001373782507651069
0.0001461859340868178
0.0001548545933918368
0.0001633476127075861
0.0001716467999628152
0.000179740318743259
0.0001876337423229059
0.0001953479142218098
0.0002028936976509861
0.0002102105065590101
0.0002171364133978549
0.0002233943708789399
0.0002284608448150345
0.0002315737182597398
0.0002318136209436218
0.0002287519470707033
0.0002226558670379682
0.0002139827881636057
0.000203018394478812
0.0001898995869388205
0.0001749352056155122
0.0001588518091988889
0.000142737352590568
0.0001276998073194
0.0001145250268433324
0.0001034661185188986
9.415519838006972e-05
8.123323928307377e-05
5.478395853772239e-05
3.474941025735754e-05
2.124723628886976e-05
1.272817216291951e-05
7.422457215653883e-06
4.124880139731355e-06
2.091108753151186e-06
9.191183551202982e-07
3.062669819263907e-07
6.905022424306687e-08
1.074101165905829e-08
1.90677615043855e-09
1.353832232173005e-09
1.518482255002124e-09
1.779346596859786e-09
2.103124848674397e-09
2.499635940461417e-09
2.989421629264078e-09
3.601313394190953e-09
4.374775059249201e-09
5.361854411714068e-09
6.632590238885794e-09
8.279649961690258e-09
1.042582766008108e-08
1.300221377763097e-08
1.652525738363876e-08
2.119510997119881e-08
2.740534899326282e-08
3.568874653906171e-08
4.669145296972364e-08
6.088388256476115e-08
7.987734778747484e-08
3.84716811762902e-11
2.556078002972214e-10
5.75581783253267e-09
4.262613977556457e-08
1.353832327345612e-07
2.634876864164034e-07
4.284194749449136e-07
6.298434739725139e-07
8.665423871331533e-07
1.137184396981599e-06
1.441206025002411e-06
1.779367349554059e-06
2.154147014035173e-06
2.569686093958083e-06
3.029952453466521e-06
3.537511787053438e-06
4.105329425361995e-06
4.744098551277717e-06
5.467091590019227e-06
6.290564497247991e-06
7.234073773571364e-06
8.320722548694614e-06
9.577227077769386e-06
1.10336951815634e-05
1.272331263913621e-05
1.467912293254124e-05
1.693860161150289e-05
1.954092625821113e-05
2.252269434476074e-05
2.591835802206934e-05
2.975863008044898e-05
3.406658980753875e-05
3.886230674547735e-05
4.416001665379096e-05
4.99617665623582e-05
5.62626028134857e-05
6.304752021840498e-05
7.028715857047378e-05
7.794517722293819e-05
8.597427026118336e-05
9.431511010748949e-05
0.0001029052079230113
0.0001116826037997219
0.0001205687703043753
0.0001294774991247062
0.0001383446467004925
0.0001471167862147221
0.0001557446946227824
0.0001641926933884704
0.000172441841761434
0.0001804837555402712
0.0001883200542739566
0.0001959635276033825
0.000203413459942701
0.0002106056209496076
0.0002173716962392625
0.0002234103219103297
0.0002282044680440841
0.0002309850197561179
0.0002307972023584821
0.0002272485850711497
0.0002206681900127901
0.0002115607919740722
0.0002002558064459391
0.0001869230783894942
0.0001718929901476184
0.0001559172994432229
0.0001400751254701581
0.0001254066231078459
0.0001126022502597185
0.0001018313219969163
9.268802593178427e-05
7.643454175911399e-05
5.129389400223394e-05
3.250837350965117e-05
1.991341676873831e-05
1.194099289892923e-05
6.963081843660303e-06
3.86990382101418e-06
1.970647891495507e-06
8.783605024031184e-07
2.995440098342358e-07
6.879824328395525e-08
1.07512086386429e-08
1.947767425163457e-09
1.358669433310027e-09
1.516187701280285e-09
1.774625300382221e-09
2.096787151260283e-09
2.492010656357297e-09
2.980717709227681e-09
3.591688296671322e-09
4.36442108633599e-09
5.351074678792149e-09
6.621928894876327e-09
8.270039328527871e-09
1.028241304821265e-08
1.294070851023359e-08
1.645344375089711e-08
2.111157600628346e-08
2.730880315054836e-08
3.557803709706366e-08
4.66427260044901e-08
6.145271498040907e-08
8.060424345720915e-08
1.063171558840919e-07
3.939903508008059e-11
2.630043861770279e-10
5.945539644195375e-09
4.394072214306077e-08
1.387672444126736e-07
2.688699731908207e-07
4.366209385439083e-07
6.414980819853956e-07
8.821609982778649e-07
1.1572604515152e-06
1.466258034147863e-06
1.80997848358467e-06
2.191040855029802e-06
2.613816656611108e-06
3.082599914317054e-06
3.599789974603769e-06
4.178795397955148e-06
4.830615503252576e-06
5.568947230213336e-06
6.410476196832859e-06
7.375224263948648e-06
8.486750938043208e-06
9.772217497406763e-06
1.126220486795544e-05
1.299020659827745e-05
1.498901022733226e-05
1.729612716693038e-05
1.995095545262191e-05
2.298968809235723e-05
2.644611751509287e-05
3.035027933837704e-05
3.472396215013556e-05
3.958599805178955e-05
4.494946259739099e-05
5.0814486212081e-05
5.717447885232196e-05
6.401359722954253e-05
7.130106676004503e-05
7.899845620522105e-05
8.705726155066821e-05
9.541931948530714e-05
0.0001040194229161091
0.0001127905507918086
0.0001216611387177558
0.0001305507590294839
0.0001393889568679917
0.0001481218877380676
0.0001567043450938786
0.000165101662766047
0.0001732948166063497
0.000181276530258399
0.0001890464007432799
0.0001966083947496843
0.0002039513872693285
0.0002110038375790084
0.0002175882734439243
0.0002233844980454051
0.0002278706565377579
0.0002302670338489165
0.0002295976983303782
0.0002255217151089879
0.0002184372923389689
0.0002088971952724657
0.0001972697194964626
0.0001837573960863017
0.000168713100542447
0.0001528998763729382
0.0001373716215153762
0.0001230965536414646
0.0001106719037990826
0.0001001886220981519
9.120732640509505e-05
7.165106176115711e-05
4.789360488779428e-05
3.035075421431717e-05
1.862475352168532e-05
1.11801114036571e-05
6.51938572942934e-06
3.622602838143624e-06
1.851640604109379e-06
8.356709455818842e-07
2.916549885790012e-07
6.837557313929135e-08
1.076266763782495e-08
1.982368328769912e-09
1.364467437174817e-09
1.514567722763414e-09
1.770338581061572e-09
2.090685879257983e-09
2.484406794281349e-09
2.97178242573475e-09
3.581524139799417e-09
4.353136465607351e-09
5.338854067256034e-09
6.609140900527364e-09
8.257394038642052e-09
1.022813689461159e-08
1.287688041706845e-08
1.637843024364406e-08
2.102368789834411e-08
2.720639850110587e-08
3.545967025266053e-08
4.650733819204752e-08
6.133424141872102e-08
8.131715833638568e-08
1.072333412860308e-07
1.421408787378626e-07
4.036615065445391e-11
2.70689954622945e-10
6.147302599140458e-09
4.533462367241573e-08