/*--------------------------------*- C++ -*----------------------------------*\
| =========                 |                                                 |
| \\      /  F ield         | OpenFOAM: The Open Source CFD Toolbox           |
|  \\    /   O peration     | Version:  2006                                  |
|   \\  /    A nd           | Website:  www.openfoam.com                      |
|    \\/     M anipulation  |                                                 |
\*---------------------------------------------------------------------------*/
FoamFile
{
    version     2.0;
    format      ascii;
    class       volScalarField;
    location    "518";
    object      omega;
}
// * * * * * * * * * * * * * * * * * * * * * * * * * * * * * * * * * * * * * //

dimensions      [0 0 -1 0 0 0 0];


internalField   nonuniform List<scalar> 
28642
(
1035385.233268695
1033880.353246486
168902.4848205463
1032313.606281448
168599.107520662
54726.48737175539
1030670.86597516
168282.6171513306
54626.51254730931
26796.79915580868
1028935.505325275
167950.375756535
54521.02493408986
26765.0335336754
16667.23090669657
1027123.12315948
167599.3243975755
54409.06714756211
26730.00365018094
16653.05454678598
11570.7177331291
1025233.085033421
167232.3249184718
54289.5566239068
26691.21341250038
16636.42428567822
11557.601681401
8480.713838982014
1023238.918295226
166849.1959819413
54163.61428640195
26648.10945713532
16616.98430967729
11542.54428323814
8466.13825517389
6429.783744375925
1021145.379922937
166445.0385465701
54031.21153687869
26601.27975841599
16594.3416080867
11525.24082631671
8450.056302905921
6414.463720587596
4999.5045213464
1018963.883419829
166020.7065990747
53890.53833589057
26550.79727272414
16568.79778366365
11505.36910858092
8432.179537649747
6398.013222782475
4984.347184344771
3967.834471851467
1016681.164879811
165578.2700303836
53741.91706296524
26495.74783165468
16540.46084013185
11483.05205178542
8412.232340935576
6380.136136427997
4968.354299691295
3953.417660694202
3202.756118146217
1014279.666121865
165115.2236064511
53586.18137393814
26436.2255596541
16508.7947257543
11458.38117555732
8390.227897782157
6360.590147374337
4951.214901676486
3938.352011763278
3189.373478903324
2621.391168845244
2180.2832552943
8.061001404671686
1011760.425686431
164628.322098972
53422.41345094854
26372.71200123625
16473.7532953133
11431.03251892139
8366.213424477688
6339.328762252351
4932.717341962988
3922.329737856386
3175.421114063548
2609.131478280867
2169.985552823602
1822.538523761551
9.172866406240498
7.885441786666281
6.576633209174023
1009132.371648138
164117.749695811
53249.41220445051
26304.80658304636
16435.6193964522
11400.91092662031
8339.99415268241
6316.352278604968
4912.792219934075
3905.17835408015
3160.626069031618
2596.305299298279
2158.851062533477
1812.979099109481
1534.566294434994
8.987896685064142
7.71555222240772
6.425033043355639
5.202252677223337
1006385.288845241
163585.1357936623
53067.27752633411
26231.85533772939
16394.23329449553
11368.16328098906
8311.483144377584
6291.54044376571
4891.405001604597
3886.830887808208
3144.866165082045
2582.702835720499
2147.067200345673
1802.737500400417
1525.677385833084
1299.102185434704
9.942190810198959
8.80551331711354
7.550497909075752
6.278316848608562
5.074716392524109
3.990416357901225
1003508.734763464
163028.5695302874
52876.68501043312
26153.85766992103
16349.15359341207
11332.74647191699
8280.736113234645
6264.835720167255
4868.475341481229
3867.234233238673
3128.091473954276
2568.254495019397
2134.556670168929
1791.869993201832
1516.201836480099
1290.835877092101
1104.093934295179
9.743966589888291
8.62485560432728
7.388782912407907
6.135166066506114
4.950904269175948
3.886595352386229
2.939589635458091
1000489.680624106
162446.1048714419
52676.98298484616
26071.1941086059
16300.2845546864
11294.36221669132
8247.753700431655
6236.239966176026
4843.975761399667
3846.3291103084
3110.244486016912
2552.931726031806
2121.291837591756
1780.336139271467
1506.154798173802
1282.057664049897
1096.410242171875
940.9082890347445
10.47461866600725
9.547743159470576
8.446610366102897
7.229230409998761
5.994455677913147
4.829659455008523
3.784944971957723
2.85872901248607
2.065429898973641
997329.6473694359
161835.3678350348
52467.44469939645
25983.61679378209
16247.82560587465
11252.88693226112
8212.34617587811
6205.760737359277
4817.881118698542
3824.111807602275
3091.278309459292
2536.681730614211
2107.261883909931
1768.125493990981
1495.502788484474
1272.760713056614
1088.269990222734
933.7845031613093
803.234554598308
691.9646198056053
10.27055726311936
9.35185177234654
8.270023335101012
7.071040926627917
5.855224469933943
4.710002259243741
3.684617992329899
2.778445739944351
2.007742723241027
994033.835317376
161196.6626832315
52247.24833467
25890.72689828304
16191.69614156761
11208.40335676496
8174.410164517288
6173.282011157319
4790.192404757144
3800.545542227694
3071.199256132697
2519.466515639456
2092.422514074034
1755.237837540071
1484.241543165479
1262.914920766492
1079.660861018866
926.2415582750452
796.6550583003939
686.3931885647193
592.1137026504234
10.87601249137109
10.06950679568708
9.159549322899867
8.094267986666754
6.913499332797858
5.716656021757539
4.591091848898172
3.584872298820524
2.698300052441378
1.948829276242038
1.361724306604359
990589.5343163766
160530.9584895943
52016.56288306728
25792.0851776451
16131.63869256163
11160.90102093221
8133.95923879365
6138.736860948869
4760.838407287712
3775.62321661517
3049.972178743406
2501.294149725725
2076.742995884522
1741.6376153623
1472.375978388801
1252.51943634823
1070.555348150331
918.2712717501734
789.678679584494
680.3381050315097
586.8844823190634
506.7766106465133
11.48894600679497
10.67166484130708
9.867256215912073
8.969975226243518
7.919100227236123
6.75593489411733
5.578029140481821
4.47220018724484
3.485058310103594
2.617874301592937
1.888982943013977
1.32239413871051
0.8851911789164886
0.002454093745418938
986988.6548872584
159835.9513922668
51775.83690308344
25687.73609787271
16067.33172198008
11110.22650996665
8091.000509264303
6102.105861589012
4729.785699950008
3749.299267166536
3027.585202626551
2482.137237940828
2060.23545995603
1727.30000723839
1459.878820853719
1241.581299252426
1060.953753491222
909.8518491446799
782.3083028491426
673.8992263840584
581.2954333888049
501.9404223043235
433.8364731778015
375.45205508301
12.15023557797348
11.27948961133725
10.46745687420445
9.670214570840232
8.781677309152139
7.744068469726422
6.597746254847232
5.438682503071488
4.352683006537803
3.384613554211153
2.536796921965871
1.828198554781572
1.281030984932968
0.8627632417821903
0.5284359302419785
0.003103078154305286
0.002730389875796881
0.00245999465103513
0.00224846913930375
0.002079473123554212
0.001943373316945251
983224.7189443653
159110.1683142128
51524.32682588376
25577.93959889505
15998.71667780147
11056.14454314429
8045.452806357817
6063.392148858358
4697.005157378807
3721.564035066033
3004.007578453338
2461.982657566442
2042.877599500305
1712.239566623276
1446.731329686033
1230.080570996961
1050.863698969438
900.9849309487701
774.5309407430279
667.0961569362604
575.3617517695405
496.7903689356385
429.394135829851
371.5931685282359
322.1097254750414
12.91416641980691
11.94570395916051
11.07448911824111
10.26923247181981
9.476306876530742
8.594672944281415
7.568551392061546
6.438335024786085
5.29800042700409
4.23196516419489
3.28306191595857
2.454764330923198
1.766460128898331
1.23804604566981
0.8372920790094053
0.5196137031225817
0.2561238011965528
0.005088643355469132
0.003744226599990025
0.003117457487989643
0.002739704650237222
0.002466181139666263
0.002253032414503003
0.002082886904779976
0.001945972729842428
0.001835327099551003
0.001745983322882344
979285.1901778964
158352.4677894197
51261.51784234477
25462.40973126703
15925.91504732945
10998.56892636171
7997.15731584235
6022.556082657167
4662.492203150511
3692.390489649285
2979.243754383726
2440.808783407508
2024.656908744513
1696.440214078114
1432.94847458961
1218.004578777847
1040.271094636436
891.6782997406236
766.3504785450824
659.924857952174
569.0971184797083
491.3346542089141
424.6631733666003
367.4989614832284
318.5425371563814
276.6931451170678
13.8856295100971
12.72792923351603
11.74559308851059
10.8749810231208
10.07450084834282
9.284897687358741
8.408023365109221
7.39193157745437
6.27710440588743
5.155396563858127
4.109529025172272
3.180012959750742
2.371558910059381
1.703777613237266
1.193775115156386
0.809460267161954
0.5073444011693624
0.25563701405908
0.1013622628107299
0.03324065864364806
0.0106566813100725
0.005188093175569526
0.003775248324213473
0.003132166556190867
0.002749244828380377
0.002472832182698772
0.002257801892436919
0.002086484042536241
0.001948704185570376
0.001837477422763718
0.00174765995376589
0.001675139690651903
0.001616754079193507
975169.3541737362
157560.6399410307
50987.044404345
25340.86321582228
15848.81146693704
10937.53583461909
7946.045215630353
5979.497553042935
4626.227483931835
3661.769369702582
2953.272953922914
2418.627078938926
2005.557668258571
1679.890999590755
1418.519448080063
1205.367502022793
1029.168296921374
881.9225623011852
757.7750073245456
652.3916790274285
562.5017509113984
485.5829629782738
419.6623709596365
363.164808412872
314.7901191420431
273.4522924067181
238.1501609750619
208.0925187746862
15.14092472148793
13.72462221383561
12.54299075514376
11.55172629825414
10.68077619910022
9.883199301600692
9.094836858454315
8.220903979279285
7.21351750211115
6.113436030048985
5.01034424094867
3.984940550188637
3.075185289948787
2.287068969247125
1.640215083246852
1.148516714115476
0.7798683654685206
0.4922799001990044
0.2530809804078565
0.1022804172234912
0.0336372310311873
0.01096649690998885
0.005284283138266431
0.00380698952352593
0.003147128485948246
0.002759070684851735
0.002479844859770604
0.002262823156053451
0.002090303620603945
0.001951628396695895
0.001839747138038148
0.001749457894800111
0.00167654988871112
0.001617858544642761
0.001570728757628519
970879.0802748982
156734.6447491831
50700.21250479661
25213.08638422532
15767.22103381518
10873.005077169
7892.106481333982
5934.178153276826
4588.150620551053
3629.690447690727
2926.085047137764
2395.423477110968
1985.594137526096
1662.580234331192
1403.435910372072
1192.162513136897
1017.568785352709
871.7140949079827
748.7990156971932
644.5051906659256
555.5835508481767
479.5373894237291
414.4005436666914
358.5975734362551
310.8359273488412
270.0391848640973
235.2332371365588
205.5790008614234
180.3671900921266
158.9932126778217
18.57492604843884
16.65936254705927
14.9887937581726
13.55861651515091
12.36540798611597
11.36367102502937
10.49110798271456
9.694789297943467
8.905646792944085
8.032714438545074
7.032670202706533
5.946758774270051
4.862378652862175
3.857870516833912
2.968426496022428
2.201310956323617
1.575910787777588
1.102560832265725
0.7490429133539442
0.4750797445529906
0.2485927406316923
0.1025698646061434
0.03403866065697111
0.01120421028387514
0.005375307237559359
0.003839191101854214
0.003162419619019471
0.002769124861084602
0.002487134974150337
0.002268200666277034
0.002094348141842461
0.001954748047902484
0.001842183404192906
0.00175136159499619
0.001678063988019424
0.001619049472416473
0.001571647515322779
0.001533621600387609
0.001503179251821271
966402.6172937363
155874.9182063121
50401.09802176416
25078.72835497846
15680.9698254569
10804.87659271524
7835.326924639454
5886.57027382342
4548.249864605606
3596.118380525808
2897.674271984995
2371.189555371988
1964.758396208308
1644.522997454237
1387.690132303462
1178.38438378826
1005.469093323728
861.0657934307372
739.4220463469619
636.2631396858793
548.3514806856849
473.2064277551838
408.8807994975335
353.8035119801802
306.6820656782947
266.4509209371111
232.1457231543737
202.9255801487343
178.0792713626683
156.9866043533117
139.0797207776739
123.8934096265366
20.53286219060876
18.38038725713677
16.47955441030935
14.82343011207011
13.39643786691271
12.19352740880359
11.18168528110095
10.305581279611
9.508334028264729
8.716343459025689
7.842588351531604
6.848688070391836
5.776543793789243
4.711143415033592
3.728126569502418
2.859735302921398
2.11443317479204
1.511081261843643
1.056203542268244
0.7174465985594679
0.4563609168487842
0.2424028066403192
0.1022051120325539
0.03440676422480325
0.01136317237110157
0.00545933659050426
0.003871723705997861
0.003177960266237184
0.002779405959410946
0.002494653539916009
0.002273886998610622
0.002098584778822026
0.001958065599259442
0.001844788739528066
0.001753407969486952
0.001679670072567767
0.001620328407052883
0.001572653761393844
0.001534410477457443
0.00150379614175721
0.001479368050795889
961731.0842361785
154979.4308324949
50089.99045725543
24937.78676253813
15589.79905661958
10733.02991290687
7775.665251217128
5836.665377036648
4506.497158392535
3561.059376426521
2868.020761847204
2345.922452742904
1943.044921901375
1625.716811365505
1371.296778833577
1164.029392048464
992.8668286010744
849.9770575661756
729.6564957169717
627.6675461365041
540.8059691192816
466.5991740213923
403.1115741601657
348.7860268005476
302.3333368248948
262.6917273621187
228.9043471885986
200.1351472739246
175.6727237612704
154.8979096910857
137.2635269517565
122.2945862401698
109.5653542099027
98.74350538770148
25.03942540895633
22.61640909059497
20.29188170485987
18.17055654121841
16.2952417196258
14.65583648333962
13.23498610113518
12.02574937836319
11.00458533328499
10.12338220229051
9.322754991737501
8.525823846194474
7.649614071674611
6.660907439388188
5.602369413555174
4.556437840906085
3.595692497614872
2.749281283561539
2.026719162773352
1.446018474015896
1.009751848572449
0.6854870660435848
0.4366688672224824
0.2348032323218267
0.1011880238205782
0.0346580480704846
0.01146536327738106
0.005534741455261784
0.003904287069696797
0.003193817972190512
0.002789975481491967
0.002502452577362516
0.002279836789920039
0.002103152570007177
0.001961583263606709
0.0018475654903185
0.001755599325452827
0.001681397124293805
0.001621686251783335
0.001573733799545289
0.001535259875441267
0.001504462028112912
0.001479888645159376
0.001460340020010724
956858.2307168455
154046.6815940669
49766.30894842021
24790.41571605956
15493.63546191091
10657.28158215928
7713.051954209467
5784.453702148302
4462.885035814931
3524.492437010107
2837.140526405712
2319.612014376688
1920.453202758873
1606.15909919992
1354.257020835063
1149.111344375778
979.7616245730477
838.4480070733177
719.5041876834563
618.7303560612671
532.9509396825323
459.7181543040635
397.1018069456391
343.5531085558962
297.7933867775578
258.7667230927378
225.5172149895785
197.2152493211278
173.154456576006
152.7178071389955
135.3676877899754
120.6383431189308
108.1174318910072
97.45820072800861
88.36426490040085
80.60654967644874
74.02106804397123
31.37058299670815
29.31316866746407
27.07482578613736
24.69904759498122
22.31820724856687
20.03833465741982
17.9520719757021
16.10421853664996
14.48338660946515
13.07140122724082
11.85984805063912
10.83091760067355
9.94324579971485
9.136819660365708
8.332914707040946
7.452888635600663
6.468769341506147
5.424006382500175
4.398272354544913
3.460759807199849
2.637412933172832
1.938576504405719
1.381076327539803
0.9635197343125675
0.6535225376420305
0.4164660028247641
0.226113046807083
0.09954866189708809
0.03478312326229394
0.01156838501270609
0.005600303357541521
0.003936704636794602
0.00320990785395231
0.00280077082267401
0.002510482338669286
0.002286010683957326
0.002107962382378796
0.001965336370352887
0.001850515815306846
0.001757937839051189
0.001683247224459125
0.001623145786325701
0.001574880888549938
0.001536158439532868
0.001505177888125341
0.00148044938338144
0.001460778124512494
0.00144517647521494
951777.3940382575
153075.6622985828
49429.60339667207
24636.40387296076
15392.51790538443
10577.56014588436
7647.370339947175
5729.901881525694
4417.417587755561
3486.412225528331
2805.020988742964
2292.278291244799
1896.979362978195
1585.851220583844
1336.571068448686
1133.633593926229
966.1666622539313
826.4810125335031
708.9674285471779
609.4553915095663
524.797899978696
452.5686850939412
390.8555390565534
338.1133009465005
293.0696623294079
254.680065281078
221.9902949351061
194.1729831804683
170.5294040662208
150.447921783389
133.3964735216597
118.9194767345009
106.6131590925542
96.13393702455859
87.19817624183872
79.5677700681164
73.05464913406308
67.46990821739044
62.66695976400862
58.57155766734377
55.05177864783257
37.37253250535681
35.93408333185846
34.40431199703417
32.73603740269633
30.88047860036268
28.84761437216266
26.6550544605001
24.34152093343264
22.01151519880206
19.77367467019855
17.72370675340525
15.90489064376623
14.30504565839902
12.90447333905489
11.69369186938722
10.65862533726744
9.763516423425767
8.949099468377229
8.136425865524478
7.251601170651529
6.27189553527342
5.241477803629035
4.23705394164415
3.32377703799763
2.524648925032821
1.850512860830556
1.316649229248698
0.9178187014760424
0.6218647033533073
0.3961316208132879
0.2166476649725315
0.09734289048810182
0.0347751720210674
0.01167215930053337
0.005655188260263754
0.003968720207402064
0.003226286258301289
0.002811850783774224
0.002518793351119674
0.002292451193175421
0.002113015591949081
0.001969321761503664
0.001853641688726019
0.001760425551892665
0.001685222361522201
0.001624708866884498
0.001576112908711373
0.001537126114758308
0.001505935334857603
0.001481051261331623
0.001461249046299088
0.001445543749390149
0.001433109893292883
0.001423272205867056
946480.1530799682
152065.3505094745
49079.62070186948
24475.52451794086
15286.36528103261
10493.85602924843
7578.579608996995
5672.943554229211
4370.082859650136
3446.828472210487
2771.660255812763
2263.915816327491
1872.644402097726
1564.793338873086
1318.242275410358
1117.598805040875
952.0870452206971
814.0888382733228
698.0507707413708
599.8468033992436
516.3522382373948
445.1618015028918
384.3790044099244
332.4716155496111
288.1701647686343
250.4387474316104
218.328235384921
191.0141347225463
167.8031545983168
148.0911342471315
131.3525574702268
117.1393757021276
105.0564565566507
94.76624276132323
85.99078666904734
78.49480615802167
72.0845832796945
66.59469719014628
61.87774617552331
57.82853589775561
54.35180592694135
51.33492188062959
48.71673994677398
46.45535569686479
44.47221408101397
42.71203750679003
41.12172385528871
39.64892182791112
38.24069698664624
36.8397886466644
35.40025180873226
33.87503695822989
32.21665261179437
30.38810897479406
28.38626863215373
26.23315601112614
23.97274121639499
21.69267416248756
19.49737216196763
17.48466765183089
15.69675682984522
14.11979856886989
12.73266223181944
11.52502899875729
10.48532684795358
9.582217093319326
8.758047501071401
7.935233860716325
7.045132163288961
6.070171555926763
5.055074071249519
4.073429149552716
3.185392423799117
2.411651966976361
1.763101506329818
1.253146399073792
0.8729437165793348
0.5907800091362382
0.3759681548830954
0.2066966558022095
0.09464711633722367
0.0346304487943131
0.01176522838846628
0.005698471312959652
0.004000084683750127
0.00324292059434563
0.002823209221603851
0.002527383378633817
0.002299158141556318
0.002118313186544386
0.00197352509421838
0.001856979344635478
0.001763064371098175
0.001687324428698408
0.001626377287008007
0.001577431495155001
0.001538164335580031
0.001506764279532321
0.001481705814938496
0.001461763410771355
0.001445945957599265
0.001433424317416614
0.001423520196942847
0.001415676544790128
940954.7904937994
151014.3923455531
48716.13398251488
24307.62154743613
15175.04503796458
10406.17631757484
7506.656419262361
5613.568769761225
4320.848002350172
3405.741064984673
2737.070535405906
2234.526208514271
1847.448704273935
1543.006192229638
1299.274066435119
1101.012379219014
937.5273985933757
801.2780670797363
686.7666867556804
589.9108256547962
507.6195760572355
437.5040144972588
377.6826815695986
326.6347600216417
283.1004005733075
246.0502069893179
214.5375858193466
187.7434067147789
164.9807522581977
145.6516307871365
129.2382455512027
115.3004029587635
103.449730646949
93.35591772329663
84.74676117939357
77.39051580442232
71.09476967938086
65.70009875414591
61.06713609747102
57.08255461329751
53.65354935846797
50.6887029369072
48.11193967502171
45.87114864640724
43.90871072353781
42.16337722946025
40.58282069966879
39.11562826810002
37.71017368252008
36.3133882825063
34.8763419299049
33.35446528713099
31.70534497084565
29.89715748644543
27.92372055433261
25.80689878874324
23.59311297429632
21.36101633609956
19.20873169706891
17.23454249960425
15.47910528929239
13.92652223650906
12.55433053147041
11.35163562201366
10.30857757224212
9.397233569443127
8.562123638867256
7.728400150703635
6.833156537737607
5.86381767306915
4.865392703394162
3.908061175170789
3.046347186264833
2.299088578595414
1.676940614554873
1.190965737938603
0.8291606943345208
0.5604758405839518
0.356210319946985
0.1965106113408159
0.09155115843805038
0.03434878861604365
0.01184211021241455
0.005738574067302759
0.004030560769126432
0.003259759996422786
0.002834838911224603
0.002536249515538822
0.002306130829767112
0.002123855744507482
0.001977947684444339
0.001860509265918063
0.001765875315178428
0.001689555223292671
0.001628152774612454
0.001578838332628137
0.001539274473506244
0.001507656622161458
0.00148241132707389
0.001462318353742033
0.001446380242897628
0.001433762383500708
0.001423782448398313
0.001415883030354425
0.001409665865185691
935200.446145968
149920.9434254102
48338.80967558479
24132.563448
15058.42511789564
10314.45312272765
7431.619939281741
5551.759026313709
4269.72422066903
3363.138219581278
2701.258277454433
2204.122832856648
1821.396843578227
1520.495101729696
1279.686039387735
1083.880567909703
922.4947863512223
788.0549264154814
675.1229912910482
579.6596684376898
498.6073544159015
429.6019994316115
370.7737518685702
320.6125305349195
277.8671523195521
241.52012060145
210.6251709864326
184.3667671537328
162.0665546270909
143.1335574076074
127.0567794337397
113.4045535220669
101.7952714163202
91.90489928977068
83.46796475865023
76.25696067154828
70.0821347076011
64.78797356705131
60.24017671389385
56.32620978185557
52.95243651668453
50.03562749644439
47.5012358218573
45.28971666574842
43.34782921185231
41.61897225388903
40.04956390318853
38.589074595661
37.18715194200765
35.79304605015116
34.35826277092552
32.83924099774144
31.19772950834277
29.40600714493414
27.45788287612998
25.37452780622282
23.20280469883932
21.01611224489792
18.90703407610707
16.972733986266
15.25115767748388
13.72404884725165
12.36786406730717
11.17138852052895
10.12603305543791
9.206538188873813
8.359973277251857
7.515304624267141
6.615733920124168
5.65342917949497
4.673336405309029
3.741861488301548
2.907547367960127
2.187679129642127
1.592610272466815
1.130471706890895
0.7866990002219884
0.5311095773412384
0.3369306740215836
0.1862961237335618
0.08815054521095601
0.0339338849546711
0.01190149433765906
0.00577889208154813
0.004059972314560181
0.003276775255429677
0.002846731369979187
0.002545388196934577
0.002313368037766325
0.002129643434771888
0.001982590529230584
0.001864232926900742
0.001768853648842871
0.001691927737198415
0.001630036989665299
0.00158033490714945
0.001540475693021519
0.001508613347959759
0.001483168655798278
0.001462914606526311
0.001446847214485012
0.001434126158008724
0.001424064126246389
0.001416100910366967
0.001409836641665295
0.001404918899276439
929216.7287245116
148785.1259591976
47947.18847588377
23950.169128873
14936.38710372245
10218.60876961795
7353.458259976179
5487.519288775365
4216.705955711263
3319.043130822152
2664.224412106205
2172.715766274706
1794.502983828216
1497.267168381193
1259.486492162579
1066.221555165925
906.9975638408121
774.427783268403
663.1272108857424
569.1020910558605
489.3274552224593
421.4639345923154
363.659495868989
314.4123359635
272.4793896165472
236.8550943288803
206.596556059266
180.8903200414173
159.065797777017
140.540699900414
124.8114904365248
111.4544196561768
100.0948715833338
90.41516301911651
82.15615972882495
75.095462927114
69.04679405827927
63.85795438359145
59.39851924261519
55.55847048730203
52.2448953373823
49.37772854716761
46.88566104489128
44.70704654351696
42.78844059868663
41.07686843108091
39.5196467448501
38.0666211380661
36.66858575454702
35.2765264245275
33.84332560019907
32.32670337188044
30.69129655541106
28.91301560544724
26.98706831858893
24.93431799322833
22.80121305233131
20.65752319071191
18.59167253006487
16.69862851901116
15.012129986
13.51125397798595
12.1717363586271
10.9823692880088
9.93563031159948
9.008420300131142
8.150617690426598
7.295765504058996
6.393369719636717
5.439976979074851
4.480070241843902
3.575920123611113
2.770016455103661
2.078288045633253
1.510638897673813
1.071978391814387
0.7457468115076508
0.5028072730649221
0.3181993392615
0.1762161486938023
0.08453945778316126
0.03339329604673583
0.01194221440112034
0.005819425028222736
0.004088159448561333
0.003293929912959518
0.00285887701206675
0.002554795214211075
0.002320868033845458
0.002135676018101128
0.001987454307837286
0.001868151555533123
0.001772000908786792
0.00169444454400111
0.001632038606616669
0.001581922620581961
0.001541757206865992
0.001509635436259138
0.001483978660839645
0.001463552906994041
0.001447347493721091
0.001434516154717443
0.001424366375042769
0.001416334555922945
0.001410016478787557
0.001405059218273554
0.001401178829446537
922991.871673875
147606.9844878747
47541.48998426214
23760.2141789713
14808.78808737083
10118.57137010922
7272.146700617029
5420.868916227098
4161.803447042433
3273.460090528148
2625.997391292865
2140.313162331058
1766.779267904677
1473.337176887708
1238.684893339473
1048.045162206254
891.0528101663546
760.4064703809179
650.7886779408881
558.2465982514033
479.7892342407065
413.1012210535117
356.3483619446533
308.0416112866048
266.9443467674478
232.0632465821374
202.4579461729808
177.3192499612949
155.9837693380707
137.8774730773095
122.5055212341301
109.452662301052
98.35063236599667
88.8882451050472
80.81297050261817
73.90733482877827
67.98926064111835
62.91010228501104
58.54249389781733
54.77935874776794
51.52937184497974
48.71440541069639
46.26563636574014
44.12169092870132
42.22877447579308
40.535689063151
38.99140581968572
37.54636208984861
36.15237466930159
34.76189183822109
33.32940542902489
31.81426594131862
30.18353264021265
28.41620805340057
26.50952148556148
24.48464354999465
22.38739572319215
20.28476001787029
18.26225774482991
16.41175629585009
14.76132894579279
13.28714405907707
11.9646284622071
10.78299756159082
9.735771624958753
8.801691911088326
7.933610229241674
7.070116522735855
6.167012308717573
5.224793066495589
4.286960230176128
3.411421876124677
2.634776141407489
1.971705115432689
1.431480978662852
1.015739757111595
0.7064492244758973
0.4756641711341535
0.3001445905233263
0.1663940785497172
0.08080516997106124
0.03273814995620219
0.01196330234188378
0.005860173058986132
0.004114955348564928
0.003311181842904845
0.002871265088831883
0.002564465728014688
0.002328628589272429
0.002141952852672578
0.001992539381052234
0.00187226613506325
0.00177531844711918
0.001697107175011199
0.001634163264088885
0.00158360786720425
0.001543120073779368
0.001510723857957808
0.001484842202956854
0.00146423399830996
0.001447881709846294
0.001434932898134945
0.001424689619911563
0.001416584512402058
0.001410209003847588
0.0014052067021164
0.001401293383288876
0.001398241389716908
916517.5368431944
146384.5251538792
47121.79160298171
23562.72683689598
14675.47481108343
10014.25774847425
7187.659335477444
5351.819719135993
4105.037069688049
3226.403712316583
2586.587009300101
2106.944248428401
1738.237888435058
1448.718408353134
1217.296211869183
1029.362553449175
874.6714718835732
746.0071507845148
638.1181586391609
547.1031438029687
470.0018014757745
404.5234134901563
348.8510600219652
301.5086385986166
261.2692106880264
227.1514299635217
198.2165535216295
173.6591451835278
152.8250752251953
135.1482961835545
120.1424540048703
107.401817965183
96.56465544039672
87.3258075746554
79.43962884167931
72.69376711412808
66.91028849822108
61.94456793045905
57.67220576399556
53.98879577654794
50.80513715656716
48.04478085392851
45.64080730656228
43.53285770110553
41.6673130334301
39.99395527849846
38.46321260481781
37.02647198930711
35.63647734759549
34.24705757858827
32.81432855304062
31.29949236929781
29.67193469677135
27.9134499805774
26.02348071058561
24.02402970137594
21.96043570556493
19.89743851377722
17.91872203172108
16.11194610097008
14.49829462820226
13.0509796662601
11.7455703143282
10.57219044137342
9.525480067804747
8.585846788048737
7.709141600579283
6.839210867902906
5.937970072491858
5.009398214002997
4.095714908340807
3.249671282388864
2.502779885219662
1.868609424163881
1.35549988097261
0.9619454393801879
0.6689094143197398
0.4497470058768934
0.2828570788466159
0.1569193317245924
0.07702436163609075
0.03198256514355807
0.01196403303453339
0.005901136637613056
0.004140183741883408
0.003328484248199699
0.002883883642341083
0.002574394282448137
0.002336646991711355
0.002148472904761151
0.001997845794638414
0.001876577402461428
0.001778807431789147
0.001699917025562438
0.001636412447429692
0.001585417419267021
0.001544569283776808
0.00151187957389145
0.001485760141784562
0.001464958628516817
0.001448450499006925
0.001435376920295934
0.001425034294365059
0.001416851129354604
0.001410414395160107
0.001405364311456496
0.00140141356459017
0.001398334320948042
0.00139594493690995
909786.5553586532
145116.6050161098
46687.51571110431
23358.72508268027
14536.39482293823
9905.589054885542
7099.963403412517
5280.378324097098
4046.433629477499
3177.896852124843
2546.007891616598
2072.623847790247
1708.906833265469
1423.425072798366
1195.334893144312
1010.188773138903
857.8656036023775
731.2415244599199
625.1309599960164
535.6829399757961
459.9753621205635
395.7398145725611
341.1769415339903
294.8232253888729
255.4617447551365
222.1263981497076
193.8786633594092
169.9162262665075
149.5945486854947
132.3570799537138
117.7258477987106
105.3047133713729
94.73893090843183