/*--------------------------------*- C++ -*----------------------------------*\
| =========                 |                                                 |
| \\      /  F ield         | OpenFOAM: The Open Source CFD Toolbox           |
|  \\    /   O peration     | Version:  2006                                  |
|   \\  /    A nd           | Website:  www.openfoam.com                      |
|    \\/     M anipulation  |                                                 |
\*---------------------------------------------------------------------------*/
FoamFile
{
    version     2.0;
    format      ascii;
    class       volScalarField;
    location    "518";
    object      p;
}
// * * * * * * * * * * * * * * * * * * * * * * * * * * * * * * * * * * * * * //

dimensions      [0 2 -2 0 0 0 0];


internalField   nonuniform List<scalar> 
28642
(
0.07241109046016861
0.07063906912529756
0.0724114703956171
0.06889606335492325
0.07063946187894019
0.07241204240981348
0.06718052398631329
0.06889647011982264
0.07064005318529462
0.07241277791297174
0.06549732888008304
0.06718094457387946
0.06889708266232171
0.07064081334137692
0.07241367446863638
0.06384267117686915
0.06549776318741758
0.06718157888396716
0.0688978706683292
0.07064174010634457
0.07241473637401577
0.06221204516901192
0.06384312076117485
0.06549841856329759
0.06718239625744712
0.06889883256193902
0.07064283793419734
0.07241598102549479
0.06060994540463748
0.06221251069603903
0.06384379917404263
0.06549926325933417
0.067183396254179
0.06889997335814604
0.07064412486458463
0.07241743692467449
0.05903738517309551
0.06061042622743753
0.06221321410097217
0.063844673673768
0.06550029712263751
0.06718458481679862
0.06890131205785792
0.07064563079489553
0.07241913272718384
0.05748716329726489
0.05903788239763184
0.06061115366391188
0.06221412243773704
0.06384574447879601
0.06550152635324946
0.0671859820622598
0.06890288014469215
0.07064738529146636
0.07242110647764369
0.05596126358490614
0.05748767857019197
0.05903863452927418
0.06061209400149606
0.06221523734827727
0.06384701802716458
0.06550297190211604
0.06718762125945744
0.06890470859801602
0.07064942671170867
0.07242340087262976
0.05446087775231293
0.05596179704769157
0.05748845880872374
0.05903960639408958
0.06061324983038074
0.06221656628544799
0.0638485162773631
0.06550466880542774
0.067189535207511
0.06890683738374076
0.07065179966860921
0.07242605675998311
0.07423319894985211
0.2602513218289288
0.05298700355377203
0.05446142932582851
0.0559626057820183
0.05748946827139269
0.0590408007299772
0.06061462923457364
0.0622181326247699
0.06385027640555699
0.06550665170278683
0.06719176616873478
0.06890931373856303
0.07065455186834414
0.07242912171884605
0.07423656638701852
0.2499718848808874
0.2548720717010012
0.2596384288642946
0.05153422127961276
0.05298757413110763
0.05446226653399724
0.05596365376070981
0.05749071095918514
0.05904222558672442
0.06061625675043206
0.06221997609932377
0.06385233532381029
0.06550896514745809
0.06719436440223377
0.06891219004446292
0.07065773507981388
0.07243265226181224
0.07424044245376361
0.2448069132933693
0.2496336327823299
0.2543638178093973
0.2589096540339379
0.0501028181723868
0.05153481281357531
0.052988440305948
0.05446335268027348
0.05596494675941469
0.05749219573415961
0.05904390647397051
0.06061817451878816
0.06222213640360512
0.06385474032135416
0.06551166220307107
0.06719738625454517
0.06891552415177356
0.07066141217901604
0.07243672313525559
0.07424488814209627
0.2350508199983503
0.2397972802064243
0.2445406475928353
0.2492169297596089
0.2537528344248624
0.258058073741242
0.04869393944588148
0.05010343131008789
0.05153571162065168
0.05298956382051388
0.05446469506606762
0.05596649464227008
0.0574939496858563
0.05904588803998555
0.06062042489237202
0.06222466419150628
0.06385754766815643
0.0655148025628155
0.06720089430321939
0.06891938358993126
0.07066566136599334
0.07244140985960028
0.07424997885968249
0.2303028148176121
0.234939689878133
0.2395907861555534
0.2442035179262395
0.2487096003401179
0.2530344621885021
0.2570652828891146
0.04730775652036854
0.04869457445275324
0.05010436409238678
0.05153687874061396
0.0529909525818088
0.05446630438544862
0.05596832602815781
0.05749602061003014
0.05904821536339628
0.06062306180224875
0.06222761964654373
0.06386082071137568
0.06551845269166534
0.06720496072497172
0.06892384765287607
0.07067055886858634
0.07244677924881876
0.07425579312942339
0.221212665388412
0.2256970461335592
0.2302302434215916
0.2347855393481131
0.2393247166949677
0.2437884036472574
0.2481094735639183
0.2521931998018396
0.2558583790309234
0.04594443382623972
0.04730841378880715
0.04869554173882033
0.05010557733134524
0.05153832376990159
0.05299261741030242
0.05446821072185266
0.05597049197887231
0.05749845708501176
0.05905094573921012
0.06062614931721384
0.06223107051220582
0.06386463007966257
0.06552268920551689
0.06720966931315984
0.06892899701853149
0.07067617663264049
0.07245291038864075
0.07426240508658753
0.07609839421137761
0.2168382059289663
0.2212217774497601
0.225657393208013
0.2301212781898948
0.2345820105784854
0.2389925773466069
0.2432942202542176
0.2474036840997216
0.2511675078324634
0.04459952321371698
0.04594511452914658
0.04730941607014726
0.04869680190117704
0.05010708305123128
0.05154005840622523
0.05299458971169849
0.05447046841557091
0.05597304478466912
0.05750132058061673
0.05905414718902947
0.06062975959645379
0.06223509234192085
0.0638690572431939
0.06552760118821542
0.06721510675876328
0.06893491140708882
0.07068259913190873
0.07245989168749639
0.07426990453179681
0.07610650477476251
0.2083479901539627
0.2125789814433619
0.2168707519222778
0.2212130269228359
0.225589645747434
0.2299728227455411
0.2343235811899958
0.2385943436981754
0.2427107287286732
0.2465388291459949
0.24987046177298
0.04327378189979297
0.04460022961822722
0.04594615282439901
0.04731072332602117
0.04869836965526031
0.05010889416671128
0.05154211597241517
0.05299692727258764
0.05447313351720842
0.05597605048337916
0.05750468405108926
0.05905789643738484
0.06063397316182667
0.06223977235002894
0.06387419725216878
0.0655332815613922
0.06722135989263926
0.0689416817347018
0.07068992266744117
0.07246781738955037
0.07427837839984218
0.07611565643994514
0.2001974818618287
0.2042781199589227
0.2084254827629125
0.2126335200724335
0.2168904027191315
0.221183604387811
0.2254914462605874
0.2297805449081116
0.2340124458668442
0.2381229141148149
0.2419921772450122
0.2454507898864565
0.2481424308379958
0.1716074092917049
0.04196745143313046
0.0432745147204961
0.04460130837591463
0.04594750709830792
0.04731235272557509
0.0487002591721942
0.05011104601370726
0.05154455847294388
0.05299969006603928
0.05447627672682857
0.05597958737410939
0.05750862974321319
0.05906227911337229
0.06063888303291451
0.06224521281069054
0.06388014994456431
0.0655398238433941
0.06722852697957105
0.06894941176734912
0.07069825162586904
0.07247679048095691
0.07428792927874402
0.07612594341106881
0.07799825629441284
0.1923545343549685
0.19629653000519
0.200304208843439
0.2043744811735132
0.2085029031693596
0.2126813441788254
0.2168969553312028
0.22113222579382
0.2253603871555327
0.2295495280046446
0.2336446063511384
0.2375395690462692
0.2410910640546737
0.2440207879511992
0.2456486722957154
0.1917354700539421
0.1811285944452188
0.1710725390447208
0.1615851877254471
0.152636246711697
0.1441737752554383
0.04068043909481134
0.0419682115966671
0.04327563529362468
0.04460271755525268
0.04594919613458816
0.04731431950421727
0.0487025077934769
0.05011360516832968
0.05154745068772498
0.05300295360282856
0.05447998190449287
0.05598374378970845
0.05751324953738132
0.05906739416616279
0.06064459893443588
0.0622515217018758
0.06388701611991811
0.06554733383159786
0.06723672040547658
0.06895821500813951
0.07070769979855172
0.07248692878680439
0.07429868241234056
0.07613748310319973
0.07801054826142556
0.1847939726743666
0.1886061763763857
0.1924818492061796
0.1964202065639719
0.2004194273117326
0.204474594685171
0.2085793689693703
0.2127232833387843
0.2168902728685277
0.2210594183244447
0.2252049798377342
0.2292786947995629
0.2331877186948717
0.2368090374935252
0.2399222375055769
0.2419627383846161
0.2418974871481882
0.2130228987781093
0.202053286488819
0.1911119453643685
0.1805529696838869
0.1705329107262723
0.161077751139611
0.1521604030771914
0.1437302253790096
0.1357392886121607
0.1281426720242179
0.03941262406580022
0.04068122752100075
0.04196937553167969
0.04327710173054844
0.04460447913239742
0.04595123561624305
0.04731666299124478
0.04870518681384323
0.05011664175683287
0.05155087390620629
0.05300680747706451
0.05448434376832303
0.05598861837080264
0.05751864941746147
0.05907335869611181
0.06065123748112914
0.06225880809429558
0.06389490984678695
0.0655559329997239
0.06724606367844076
0.06896821529532776
0.07071839237462273
0.07249836168079847
0.07431077100624955
0.07615039216819212
0.07802422956989442
0.1774965724620866
0.1811856866772262
0.1849371107098978
0.188749531967453
0.1926229674180577
0.196555674047481
0.2005434981609815
0.2045800625828836
0.2086570933098135
0.2127608976090442
0.2168743383001882
0.2209772752620926
0.2250269386953707
0.2289417774086319
0.2326161893220767
0.2358722486731118
0.2382498632241761
0.2387979750998441
0.2364085502855489
0.2306934307982244
0.2222589418303578
0.2121516371112648
0.2013329629892327
0.1904762051906002
0.17997010799278
0.1699887636326018
0.1605670876398998
0.151681985678063
0.1432843395962568
0.135326612078076
0.1277637108487108
0.1205597050535335
0.1136842112429903
0.03816395338338734
0.03941344150289847
0.0406824362846421
0.04197090153707074
0.04327893990316468
0.04460661025531929
0.04595366691667573
0.04731945941150158
0.04870837207139425
0.05012024358133972
0.05155492450474085
0.05301135304360838
0.05448946815357383
0.05599432490056944
0.05752495522301947
0.05908029834152209
0.0606589165820756
0.06226719557406183
0.06390396257893123
0.0655657554499291
0.06725669206771986
0.06897954927286577
0.07073047031987077
0.07251123654974466
0.07432433323489676
0.07616475103749591
0.07803941024218231
0.07995163184632
0.1704492087085676
0.1740194645435144
0.1776516203124433
0.1813443661501251
0.1850972980223612
0.1889097910942646
0.1927804746921331
0.1967055831741406
0.2006794454596336
0.2046946204082731
0.2087400272672115
0.2128021437301844
0.2168648647932315
0.2208900726539539
0.2248058760014734
0.2285211913361999
0.231890110357936
0.2345408156365107
0.2356238225648868
0.2339735221741918
0.2289697634248448
0.2210445519122758
0.2112416163334221
0.2005909588620776
0.1898282778561452
0.1793801579207366
0.1694402422746124
0.1600534330724505
0.1512012319798188
0.1428363524132142
0.1349117689860411
0.1273824355320137
0.120212143106651
0.1133701467078726
0.1068327042589505
0.03693119717496264
0.03816480118560818
0.03941469623098617
0.04068402409859229
0.041972819890354
0.04328116862719627
0.0446091551040792
0.04595657163498039
0.04732279053641185
0.04871215832818076
0.05012451462324401
0.05155971160499939
0.05301670369223929
0.05449547717010021
0.05600099900243227
0.05753230302533437
0.05908834057751008
0.06066777002474034
0.06227682707642315
0.06391432003258971
0.06557694876218832
0.06726875547786962
0.06899237189449353
0.07074409684510494
0.07252570827542905
0.07433945868466561
0.07618071162799053
0.07805634604013104
0.07996930536682804
0.08191366468296792
0.1602435134352639
0.163639795614248
0.1670960792780097
0.1706126617195638
0.1741896332442383
0.1778267230726556
0.1815232734143409
0.1852787131109728
0.1890914295621062
0.1929582194719803
0.1968742450970865
0.2008329908050836
0.2048249235642631
0.2088403328627164
0.2128664508444784
0.2168684214145178
0.2207829177836375
0.2245308369089174
0.2279901336848966
0.2308614824529314
0.232403618441045
0.2314414150717001
0.2271509981234332
0.2197643097076844
0.2102925860729221
0.1998271206869704
0.1891681614746152
0.178783206768956
0.1688874547784679
0.1595369311364762
0.1507182886437571
0.1423864124417022
0.1344949779668682
0.1269990567562047
0.1198621890452801
0.1130534114911877
0.1065486879596889
0.1003283491599992
0.09437733526177738
0.03571446012913166
0.03693207819802505
0.03816610320223438
0.0394163470274352
0.04068602623471396
0.04197515123666184
0.04328383498811378
0.04461220170491306
0.04596003802338121
0.04732675849923943
0.04871665786875051
0.05012957273452242
0.0515653574007041
0.0530229902739129
0.05450251707959219
0.05600878844157497
0.05754083153265278
0.0590976300830417
0.06067795328044748
0.06228786161361746
0.0639261432669985
0.0655896773148618
0.06728242472477627
0.06900686352564502
0.07075944286426154
0.07254186704500279
0.074356303114802
0.07619857133458309
0.07807529057082807
0.07998910178417842
0.0819345734182902
0.08391935701397073
0.1537697999756649
0.1570577495379381
0.1604042001523452
0.163809599291227
0.1672745497070663
0.1707989477100845
0.1743830948810305
0.1780264277858524
0.1817281600843043
0.1854868121049928
0.1892995452099721
0.1931624374031127
0.197070004128239
0.2010138412868815
0.2049873796315783
0.2089811092008346
0.2129622931047317
0.216874928643671
0.2206500851608517
0.2241830304177878
0.227232432518117
0.2291636775621277
0.2288313299050767
0.2252439365335118
0.2184195057212575
0.2093044438583435
0.1990413088536735
0.188495839193341
0.1781793190096086
0.1683305114701428
0.1590177065128978
0.1502332807244745
0.1419346433588392
0.1340763690526448
0.1266137034228401
0.1195100375966631
0.1127341956501569
0.1062618298474785
0.1000730937859112
0.09415264656670158
0.0884883950680215
0.03451384528871337
0.03571537569351931
0.03693343301545757
0.03816781726358434
0.03941843415949305
0.04068846533648397
0.04197794573952811
0.04328703400246291
0.04461584603521245
0.04596417613329815
0.04733148435321466
0.04872199799924641
0.05013554993528204
0.05157200283821436
0.05303037009161571
0.05451074851125297
0.05601784412533268
0.05755069792867349
0.05910833571414462
0.06068964012344665
0.0623004756012077
0.06393961251769843
0.06560412959394162
0.06729789990294503
0.0690232130840895
0.07077660308148997
0.07255988436861265
0.07437519711764989
0.07621861248939223
0.07809655325281062
0.08001136828626307
0.08195806353378055
0.08394396253135583
0.08596514924959626
0.1443823121004558
0.1475120697457199
0.1506936650506354
0.1539337059318009
0.157232301914503
0.1605890036913702
0.1640043522404329
0.1674789830119619
0.171012892233276
0.1746059518608999
0.1782573121759344
0.1819656408307389
0.1857285859400492
0.1895429781880531
0.1934044908849433
0.1973057687822361
0.2012426542638755
0.2052085019091368
0.2091720702288453
0.213083431742669
0.2168823521789563
0.2204765803868389
0.2236696882857363
0.2259270607640801
0.2261624279734204
0.2232571289805435
0.2170120371278878
0.2082772484517845
0.1982333988869897
0.1878112879516827
0.1775685580422705
0.1677695296112603
0.1584958900208491
0.1497463470471641
0.1414811804601208
0.133656052537405
0.1262264811174057
0.119155797432232
0.1124126080373388
0.1059723069913599
0.09981481864406429
0.09392464256756046
0.08828949128111847
0.08289979873006564
0.03332889621710884
0.03451479685709193
0.03571678570462011
0.03693522009755434
0.03816998793761883
0.03942098216939787
0.04069139479428641
0.04198130590476901
0.04329087027979354
0.04462020743670551
0.04596911646777376
0.04733710563615075
0.04872832152461019
0.05014259853319007
0.05157981772826229
0.05303901753514682
0.05452033587575311
0.05602833717328045
0.05756208642230822
0.05912064724926652
0.06070302427301869
0.06231486727671992
0.06395493571375845
0.06562052809106825
0.0673153907862875
0.06904151903859684
0.0707957678597247
0.07258013098454058
0.07439645308000879
0.07624117773925142
0.07812051314985242
0.08003645864965514
0.08198462427988784
0.08397194800398697
0.08599477112679553
0.08805601746844208
0.09015716021983332
0.1325236172799169
0.1354499917670849
0.138424809110015
0.1414520406849065
0.1445375200209795
0.1476771402575296
0.1508713472754692
0.1541233151877021
0.1574337134526582
0.1608021009231693
0.1642292731646362
0.1677158451419992
0.1712615596175819
0.1748659243952873
0.1785277671219872
0.1822452355086327
0.186015810987334
0.1898361682007712
0.1937004059777845
0.1976062485493489
0.2015488455668184
0.2054982398662237
0.2094095536363134
0.2132298840297328
0.2168760676075781
0.220185426180033
0.2227132643471227
0.2234532441343924
0.2212003431541237
0.2155442177530442
0.2072112304352067
0.1974032850159642
0.1871144751188534
0.1769509797857154
0.167204617270461
0.1579716113497647
0.1492576312873683
0.1410261640226144
0.1332341536977739
0.1258375071103545
0.1187995600329377
0.1120887344251042
0.105680216300021
0.09955368885881397
0.09369348938866023
0.08808710186685953
0.0827249046343375
0.07759919511150724
0.03215930866651928
0.03332988549728517
0.03451626444412218
0.035718649887885
0.03693749033735345
0.03817264120341107
0.03942404789720901
0.04069492515890728
0.04198534586689315
0.04329547360655693
0.04462542733357055
0.04597500760067006
0.04734377681048122
0.0487357931602198
0.05015090250554682
0.05158899202107892
0.05304911199077006
0.05453146571382854
0.05604046895272747
0.0575752048538893
0.05913477732752301
0.06071832455186385
0.06233126661344156
0.06397236020318202
0.0656391065861493
0.06733499950827773
0.06906199153319827
0.07081735444199616
0.07260295266167879
0.07442044680130799
0.07626667822120242
0.07814754649362794
0.0800648777911583
0.08201493286275717
0.0840039873206634
0.08602880929749961
0.08809242949251983
0.090195963361167
0.09233748665276514
0.09452096719042014
0.09674510912690837
0.1187573675423381
0.1214411760842061
0.1241742276397731
0.1269557322993357
0.1297832889857752
0.1326643872089883
0.1355985926452608
0.1385826392919961
0.1416208355158181
0.1447177973441993
0.1478701647211925
0.1510778870320314
0.1543435528442443
0.1576675797719044
0.1610500800155959
0.164491985174213
0.1679935630478805
0.171554402475988
0.1751737373013257
0.1788501522127239
0.1825817103831483
0.186365801249146
0.190198274340183
0.1940787585109303
0.1980026942795551
0.2019413223945423
0.2058539967514387
0.2096939499715918
0.2133847104126639
0.2167884275223058
0.2195382867708198
0.220721004043921
0.2190837707595808
0.2140187656758734
0.2061067929768955
0.1965508819297478
0.1864053550365236
0.1763266240144516
0.1666358659670954
0.1574449907666061
0.1487672622566744
0.1405697329585693
0.1328108040475978
0.1254469061972583
0.1184414329871585
0.1117626736879741
0.1053856334889648
0.09928978312743859
0.09345926859373857
0.08788138040921614
0.08254636623639762
0.07744647808594859
0.07257549051624053
0.06792822374903948
0.03100472911400513
0.03216033730861663
0.03333141356695916
0.03451820948166572
0.03572102663194244
0.03694027213234491
0.03817583771419454
0.03942775050305801
0.0406991808920092
0.04199020697148838
0.04330099764916868
0.04463166696554946
0.04598201676140626
0.04735167627654593
0.04874461277256828
0.05016066945026745
0.05159972224470812
0.05306085704505389
0.05454435864353121
0.05605446781058614
0.05759028725947483
0.05915096759229155
0.06073579648891123
0.06234994922984479
0.0639921463648168
0.06565997119197177
0.06735695870916043
0.06908510025500032
0.07084174863293702
0.07262876625425267
0.07444763428054821
0.07629552511131027
0.07817820254897968
0.08009734996417976
0.08204964629228077
0.08404090857336677
0.08606834336653307
0.08813482675778826
0.09024122697076176
0.09238641554111897
0.09457367097116982
0.09680216011505245
0.09907506096677543
0.101389014764439
0.1037491708165108
0.106152893034258
0.1086036291050142
0.1111012865928075
0.1136459582470159
0.116235368358187
0.1188751700433027
0.1215672468476234
0.1243089105466133
0.1270986870163419
0.1299356929260577
0.1328264081430277
0.1357703938487383
0.1387661381441368
0.1418180318469768
0.1449289531281912
0.1480958862465555
0.1513192887750449
0.154601052011631
0.157941789260039
0.161342123390698
0.1648027947971566
0.16832382816616
0.1719047445223309
0.1755446404085841
0.1792420578136115
0.1829948896049381
0.1868007556660548
0.1906612241012243
0.1945707857176997
0.198501677298102
0.2024169755179031
0.2062749086984101
0.2100040389315616
0.2134845274260719
0.2164148216822896
0.2179811618791861
0.2169176825613861
0.2124391370669883
0.2049645345178428
0.1956761259169814
0.1856838678095006
0.1756955120544836
0.1660633513088746
0.1569161343836384
0.1482753617122359
0.140112003177136
0.1323861351348906
0.1250547988174108
0.118081532091675
0.1114345336796788
0.105088648932214
0.09902316542491636
0.09322203859724174
0.08767239901121197
0.08236432993389227
0.07728997871206268
0.0724430873525031
0.06781835106375685
0.06341117400960027
0.02986485492918793
0.03100579874097159
0.03216192858155142
0.03333344410667832
0.03452069884567471
0.03572394709273213
0.03694363022610398
0.03817970623587411
0.03943222567513537
0.04070431603415526
0.04199605658089726
0.04330761784539188
0.04463910820057583
0.04599033735064044
0.04736102139606235
0.04875500764535673
0.05017211522878426
0.0516122313489723
0.05307449466803558
0.05455926622311613
0.05607059209755243
0.05760760082118285
0.05916950223903784
0.06075574894732038
0.06237120570730142
0.06401440257294685
0.06568338064123493
0.06738179862804282
0.0691112758829304
0.07086941632463914
0.0726580785995028
0.07447846653937334
0.07632832990270198
0.07821329071011314
0.08013459959874317
0.08208961597406508
0.08408374885759723
0.08611443249043546
0.08818440798865761
0.09029449330833807
0.09244416354916815
0.09463592021644317
0.09686937492192965
0.09914777385163458
0.1014681205382197
0.1038348062383626
0.10624579804144
0.1087041524333837
0.1112100391961864
0.1137635601470388
0.116362756780475
0.119012637990353
0.1217138406983795
0.1244645001760361
0.1272640782156481
0.1301123580318298
0.1330145342536943
0.1359707110336474
0.1389809929710996
0.1420493442740611
0.1451769387273739
0.1483614607819053
0.1516036634035454
0.1549053505754944
0.1582674868360934
0.1616908206663661
0.1651758696796607
0.1687225993158242
0.1723305502733018
0.1759986959322301
0.1797252519616429
0.1835095365061599
0.1873546777710657
0.191253673983881
0.1951793008254351
0.1990981200976403
0.2029722429393669
0.2067341799542487
0.2102770975445452
0.2133525317650933
0.215247180314673
0.2147122205051755
0.2108094320521322
0.2037851594580608
0.1947789759327386
0.1849499398838526
0.1750576478847498
0.1654871346309636
0.1563851350704421
0.1477820385855079
0.1396530912594532
0.1319602517027827
0.1246613043560717
0.1177199681554236
0.1111044200058661
0.1047893621595933
0.09875391879348387
0.09298187389408674
0.08746020922356304
0.08217886048169876
0.07712983744502183
0.07230680124100397
0.06770443178682281
0.06331808497303736
0.05914315449749703
0.02873948586555702
0.02986596729893071
0.03100745602535239
0.03216404900466008
0.03333605364327736
0.03452376690594352
0.03572748034816813
0.03694770528515909
0.03818439500992053
0.03943764131099844
0.0407105129788032
0.04200308594538041
0.04331553248939632
0.04464796168891737
0.04600020576002272
0.0473720615895162
0.04876721519541714
0.05018548484294744
0.05162678533065044
0.05309030249560247
0.05457647462562504
0.05608913840688957
0.05762746200255267
0.05919072812629396
0.06077850856003802
0.0623951448607999
0.06403941579572382
0.06570993631316274
0.06741000163970418
0.06914103946467379
0.07090092441947445
0.07269138274854581
0.07451362235871536
0.07636599757393371
0.07825360939330944
0.0801775872160663
0.08213599471071312
0.08413357492922661
0.08616820244393132
0.08824254375662795
0.09035736585539111
0.09251236726994537
0.09470952096762442
0.09694910022033694
0.09923409807927699
0.1015618515949318
0.1039362000898758
0.1063556141245334
0.1088227535297803
0.1113380796097942
0.1139018769418222
0.1165124426417195
0.1191728809731355
0.1218839413248977
0.1246450240134226
0.1274558559829042
0.1303172132765691
0.1332336157806019
0.1362056934160235
0.1392344270108928
0.1423227279441693
0.1454706538346975
0.1486767897018515
0.1519425446243495
0.1552698376202547
0.1586597024451448
0.162112823450996
0.1656296282489051
0.1692101457047973
0.1728537405546282
0.1765588299444442
0.1803261835576453
0.1841600157052272
0.188051357481963
0.1919735362418281
0.1958963946309302
0.1997845979910505
0.2035740873741818
0.2071675031602262
0.2103583945289516
0.2125304887288653
0.2124771349311733
0.2091340303697023
0.2025693886307358
0.1938594143657902
0.1842034837800577
0.1744130183649152
0.1649072629528033
0.1558520738070864
0.1472873905196359
0.1391931052360615
0.1315332616677362
0.1242665175454189
0.1173568512879815
0.1107724318850731
0.104487870160305
0.09848213598359169
0.09273886049025563
0.08724487962391614
0.08199000204020991
0.07696611141937929
0.07216676373243189
0.06758660495503911
0.06322089892975288
0.05906511452569652
0.05511459952866734
0.02762525809832134
0.02874064489644481
0.02986769293308927
0.03100967102748998
0.03216678597763591
0.03333928033001618
0.03452748812628331
0.03573178035886646
0.03695266128063299
0.0381900872474694
0.03944419636912676
0.04071798052366527
0.04201151177605181
0.04332497178532056
0.04465848545480328
0.04601189575660397
0.04738505866031842
0.04878150504960759
0.05020107177697616
0.05164369113864627
0.05310859838475587
0.05459631437599188
0.05611046057914972
0.05765026066279464
0.05921501352701938
0.06080418511160971
0.06242208476083724
0.06406786913091198
0.06574018181741316
0.0674421527248894
0.06917502581401713
0.07093681582853935
0.07272943235894198
0.07455411440724846
0.07640940998232038
0.07830021946784954
0.08022760191476523
0.08219001945196455
0.08419177847800621
0.08623118115155327
0.0883107926965294
0.09043128856561564
0.09259255251270487
0.09479649137155798
0.0970436795358196
0.09933642960150847
0.1016728528682479
0.1040561782919937
0.1064853256272573
0.1089626884144839
0.1114889202804444
0.1140640286535503
0.1166860958181685
0.1193578755822638
0.1220806886576718
0.1248544592890123
0.127679328382837
0.1305571488388665
0.1334920341706088
0.1364847829176609
0.1395364687312618
0.142648955700967
0.1458220213363754
0.1490555888088494
0.15235163595103
0.1557119270471442
0.1591373675169248
0.1626285846238979
0.1661859463360131
0.1698092901840477
0.1734974176455637
0.1772520156037295
0.1810777763449049
0.184963456797868
0.1888832244987801
0.1928100435869441
0.1967098297048412
0.2005217401013722
0.2041554995649157
0.2074370689479342
0.2098405538967538
0.2102215393027856
0.2074173972159434
0.2013181013380944
0.1929174525408909
0.1834443980420478
0.1737615927559427
0.1643237681006453
0.1553170193959167
0.1467915051534303
0.1387321418118179
0.131105268819942
0.123870536554708
0.1169922678007203
0.1104386701830674
0.1041842636936525
0.09820790669102485
0.092493083033098
0.08702648993257812
0.08179781639440707
0.07679883752301567
0.07202301394089236
0.06746491638809855
0.06311974097233822
0.05898294629452237
0.05504996019377992
0.0513158854931452
0.0265215147839277
0.0276264720403998
0.02874244436098896
0.02987000501914186
0.03101254333351062
0.0321701819256487
0.03334320486807238
0.03453203031029702
0.03573702941286442
0.03695869823129027
0.03819700028054512
0.03945211911481143
0.0407269557930471
0.04202158620788371
0.04333621856238121
0.04467098040989354
0.04602569694561756
0.04740031042615524
0.04879820194518641
0.0502192168079162
0.05166330233025929
0.05312975198862036
0.05461918293803981
0.05613499914840368
0.05767641242568731
0.05924246771365839
0.06083313373512787
0.06245280264816075
0.06410037584930009
0.06577477868196049
0.06747896575344985
0.06921383267555248
0.07097793361239661
0.0727733632272044
0.07460091874480862
0.07645974803461274
0.07835455357377943
0.0802860164419282
0.08225325357366207
0.08426008923175494
0.08630523110029771
0.0883911086710195
0.09051827324933853
0.09268700967887257
0.09489900940941103
0.09715499308341148
0.09945679202986368
0.1018032296439928
0.1041969157563992
0.1066373121026515
0.1091266415051153
0.1116654782978731
0.1142527128746771
0.1168874017939025
0.1195727931495794
0.1223101998230351
0.1251000452772761
0.1279432113894544
0.130842492850273
0.1338012375923655
0.1368200085374856
0.1398998009873775
0.1430420021439255
0.146246969083066
0.1495157652923489
0.1528504269772206
0.1562523470599063
0.159722263535404
0.1632606121455049
0.1668673174423565
0.1705421379532326
0.1742879659116234
0.1781078765663837
0.1819890920253901
0.1859067201297314
0.1898366159683453
0.1937450744942245
0.1975743272007463
0.2012395829464208
0.2045912583879607
0.2071850243717181
0.2079537611424288
0.2056640706829312
0.2000323933204065
0.1919531374228977
0.1826725668248501
0.1731033218907889
0.1637366659506114
0.1547800278581793
0.1462944601131002
0.1382702883785897
0.1306763660260444
0.1234734590684446
0.1166263067902743
0.1101032132540653
0.10387863660399
0.09793131434711154
0.09224462161188414
0.08680511798596929
0.08160237703575556
0.07662807151664446
0.07187557934134911
0.06733938767370908
0.06301464936989544
0.05889676982296659
0.0549811863066903
0.05126309781028707
0.04773735624962495
0.02542854366335763
0.0265227867338799
0.02762836038322601
0.02874485432983224
0.02987301590779213
0.03101612006413938
0.03217432457409561
0.03334801020814838
0.0345375952009523
0.03574344687386094
0.03696605390630043
0.03820538412503089
0.0394616695687697
0.04073771558102939
0.0420336202374289
0.04334960484913968
0.04468576757047558
0.04604193947064168
0.04741817750100132
0.04881768538468145
0.05024031497720326
0.05168603283862831
0.05315421180449793
0.05464558084236758
0.0561632261512588
0.05770602125599855
0.059273488067504
0.06086624393676984
0.06248799130434611
0.06413768582434876
0.06581453613640366
0.06752110072859351
0.06925840543404246
0.07102556156352069
0.07282425707936623
0.07465535628592988
0.07651862104005935
0.07841813269376539
0.08035457554737845
0.08232761990846561
0.08434058908731415
0.08639258580748814
0.08848582405510656
0.09062098531205717
0.09279851224060948
0.09501989084513836
0.09728605943095327
0.09959843778123539
0.1019564188040597
0.1043622149703005
0.106815883111408
0.1093192966675308
0.1118719099529718
0.1144729138556562
0.1171230804904673
0.1198254269880153
0.1225814081443662
0.1253921979252796
0.128259585743757
0.1311864913932302
0.1341751536692021
0.1372260411291263
0.1403404029904344
0.143519795505219