/*--------------------------------*- C++ -*----------------------------------*\
| =========                 |                                                 |
| \\      /  F ield         | OpenFOAM: The Open Source CFD Toolbox           |
|  \\    /   O peration     | Version:  2006                                  |
|   \\  /    A nd           | Website:  www.openfoam.com                      |
|    \\/     M anipulation  |                                                 |
\*---------------------------------------------------------------------------*/
FoamFile
{
    version     2.0;
    format      ascii;
    class       surfaceScalarField;
    location    "518";
    object      phi;
}
// * * * * * * * * * * * * * * * * * * * * * * * * * * * * * * * * * * * * * //

dimensions      [0 3 -1 0 0 0 0];
oriented        oriented;


internalField   nonuniform List<scalar> 
56845
(
2.18599394288608e-07
-1.640097852140276e-09
2.202451333805412e-07
-1.645611805743362e-09
7.508535562341874e-07
-7.914319501464113e-09
2.218958207162095e-07
-1.650694685209062e-09
7.571881590160524e-07
-7.980000362044031e-09
1.449989925691904e-06
-2.132376960714998e-08
2.235529269962435e-07
-1.655969969271223e-09
7.635821254689791e-07
-8.044676931494417e-09
1.463603951299552e-06
-2.159381903812954e-08
2.323017194970888e-06
-4.429309846907348e-08
2.252284393442442e-07
-1.676368713940256e-09
7.700536386487338e-07
-8.125754931738962e-09
1.477423598958061e-06
-2.186433416315555e-08
2.346433901966422e-06
-4.501032954311314e-08
3.313794140087697e-06
-7.80274640991012e-08
2.269254882294389e-07
-1.69705180155154e-09
7.766369361136369e-07
-8.260931567896047e-09
1.491503175521581e-06
-2.220359234054858e-08
2.370304108282287e-06
-4.573455472162238e-08
3.348290538037139e-06
-7.950657664655974e-08
4.361397038125119e-06
-1.235579966661278e-07
2.286373336063894e-07
-1.711806681946809e-09
7.833401766908624e-07
-8.400298004866598e-09
1.505901330409182e-06
-2.26603743325337e-08
2.394736227889138e-06
-4.66343186236899e-08
3.383567444175174e-06
-8.101146472683937e-08
4.408080672223222e-06
-1.261900709508851e-07
5.463267500482999e-06
-1.824445960421376e-07
2.30370957870085e-07
-1.733688523479291e-09
7.901570671281669e-07
-8.528636295017754e-09
1.52063206363899e-06
-2.313103350383367e-08
2.419814072553315e-06
-4.773919863757996e-08
3.419796545209963e-06
-8.286232525868094e-08
4.455956931752816e-06
-1.28887733464005e-07
5.523788920214194e-06
-1.867113925941568e-07
6.639129879405653e-06
-2.565954416196819e-07
2.321365931008291e-07
-1.763844831334672e-09
7.971141481864624e-07
-8.69088473172433e-09
1.53570875748515e-06
-2.360526708425504e-08
2.445558281544083e-06
-4.887524369990432e-08
3.457084012575015e-06
-8.50274453667159e-08
4.505267111367146e-06
-1.321716846336932e-07
5.586017018917131e-06
-1.911158301749388e-07
6.715498895085091e-06
-2.630803046254043e-07
7.909182246071348e-06
-3.483456260812791e-07
2.33929303023789e-07
-1.794416912005062e-09
8.042346279996111e-07
-8.881583025474374e-09
1.551188657627888e-06
-2.417088338511453e-08
2.472021665872107e-06
-5.006860162442156e-08
3.495457051983673e-06
-8.724827851137771e-08
4.556138177736419e-06
-1.358990482665382e-07
5.650269928853176e-06
-1.964239898841831e-07
6.794208377856024e-06
-2.698253177289742e-07
8.003860494022566e-06
-3.577584816581262e-07
9.295180620169173e-06
-4.604533012141312e-07
2.357455914986484e-07
-1.81636237056792e-09
8.115160381248081e-07
-9.078436245099644e-09
1.567103178577702e-06
-2.479340754914742e-08
2.499302483249116e-06
-5.145180440666076e-08
3.535021267983546e-06
-8.963277529836149e-08
4.608606755481521e-06
-1.397168511127476e-07
5.716695953436525e-06
-2.023254773547725e-07
6.875657995410817e-06
-2.778731164078151e-07
8.101659527873447e-06
-3.676243465929965e-07
9.411097759014371e-06
-4.736755359104233e-07
1.081966673605316e-05
-5.961462847028249e-07
2.375933204571438e-07
-1.847777501650066e-09
8.189545670853339e-07
-9.255019520595261e-09
1.583468288933383e-06
-2.544610244088792e-08
2.527434941401626e-06
-5.292369373979759e-08
3.57592110139465e-06
-9.235170100043055e-08
4.662841452262151e-06
-1.438674443108405e-07
5.785345307481715e-06
-2.083661945926202e-07
6.960018769749051e-06
-2.866865394102741e-07
8.203059241476929e-06
-3.792724834020353e-07
9.53109194216001e-06
-4.876185305945967e-07
1.096026785898075e-05
-6.142766033466503e-07
1.250593516485374e-05
-7.593052601084985e-07
1.418324742208035e-05
-9.229886926264025e-07
0.003224746935813022
-0.0004403319624327972
2.394829315140454e-07
-1.889636325915056e-09
8.265814260293074e-07
-9.474723447553262e-09
1.600294069335997e-06
-2.608091470529193e-08
2.55646913178915e-06
-5.44823432804308e-08
3.618188236762701e-06
-9.51891982166181e-08
4.719036898163676e-06
-1.48547218822262e-07
5.856458874844271e-06
-2.149809869224319e-07
7.047358889816941e-06
-2.957063035959606e-07
8.308255532715765e-06
-3.918830405480351e-07
9.655714189454383e-06
-5.03894410317818e-07
1.110609802891199e-05
-6.334486918702956e-07
1.267525534123296e-05
-7.835967057755822e-07
1.437833744770496e-05
-9.543952370169698e-07
1.623059083833019e-05
-1.146516824247154e-06
0.002977571760590036
-0.0003929529520072465
0.003263599409110103
-0.0004348175335499017
0.003575693605096519
-0.0004819020148075078
2.414122038740731e-07
-1.929365491936113e-09
8.344238764841064e-07
-9.732133076220882e-09
1.617647738344017e-06
-2.682846845518215e-08
2.586445056277536e-06
-5.605695325082939e-08
3.661917534087991e-06
-9.821316362116498e-08
4.777222816930349e-06
-1.533738606640779e-07
5.930287276659495e-06
-2.223756551602583e-07
7.137998864991973e-06
-3.056209493245629e-07
8.417340730702229e-06
-4.047914855233118e-07
9.7851896070934e-06
-5.21358618420516e-07
1.125777036311935e-05
-6.555665291455324e-07
1.285115190836327e-05
-8.093452555458337e-07
1.458106718958514e-05
-9.863264007360469e-07
1.646279009133131e-05
-1.186594404590699e-06
1.85124167620875e-05
-1.410964367999926e-06
0.00301418262053809
-0.0003925907262687753
0.003303195362441662
-0.0004325489014582217
0.00361845355460315
-0.0004775774788843655
0.00396875590302124
-0.000527506288832386
2.433780405253336e-07
-1.964770024587057e-09
8.424864097838181e-07
-9.992062572453643e-09
1.635573937664723e-06
-2.765837044834186e-08
2.617475695838001e-06
-5.785919011926808e-08
3.707189560236194e-06
-1.013290549757939e-07
4.837547357293777e-06
-1.585388769422695e-07
6.006863691354037e-06
-2.299494150315816e-07
7.232252649501612e-06
-3.166294904642105e-07
8.530721023331926e-06
-4.190012290441269e-07
9.919644055529177e-06
-5.392459170892727e-07
1.141554926897572e-05
-6.791376347993657e-07
1.303430926398657e-05
-8.387236575542371e-07
1.479191385989107e-05
-1.020191914577019e-06
1.67043060160426e-05
-1.227842257700244e-06
1.878752391523661e-05
-1.461701515842798e-06
2.105855517413253e-05
-1.722678454165265e-06
0.002781176953828056
-0.00036039384498936
0.003051441151991587
-0.0003945563003215561
0.003343683128260323
-0.0004330784888285587
0.003662495964597291
-0.0004765913077994714
0.00401645894041345
-0.0005252805128971794
0.004420664877733988
-0.0005770893732356262
2.453826198787338e-07
-2.005733402079733e-09
8.507686276442987e-07
-1.024534915826329e-08
1.654100083521068e-06
-2.851835331099152e-08
2.649622531431341e-06
-5.980524775973935e-08
3.754166272037981e-06
-1.04835955716475e-07
4.900142719304272e-06
-1.639244951308428e-07
6.086396705195001e-06
-2.380726773127168e-07
7.330166284975479e-06
-3.278623089334155e-07
8.648781976696668e-06
-4.346904621593135e-07
1.005957476268095e-05
-5.589319337831934e-07
1.157960826805728e-05
-7.033048939435225e-07
1.32250513173624e-05
-8.698797788285871e-07
1.50116639452237e-05
-1.05847360438719e-06
1.695569605078505e-05
-1.271581941224411e-06
1.907386713997066e-05
-1.514185441619251e-06
2.13830635064161e-05
-1.786209765993014e-06
2.390071181595798e-05
-2.088737684093636e-06
0.002816313256603429
-0.0003649631610714867
0.003089542728883829
-0.0003984954186154795
0.003385233585550447
-0.0004361067539991093
0.003708001081304121
-0.0004785836023652293
0.004066342126103001
-0.0005264744896822653
0.004474190605795435
-0.0005788062364848618
0.004959658565087574
-0.0006274017025967313
2.474353650686603e-07
-2.052676959315521e-09
8.592833019739162e-07
-1.052220138985416e-08
1.673245242649301e-06
-2.938892873703564e-08
2.682951164460387e-06
-6.184713385130812e-08
3.802923383527206e-06
-1.085623830156149e-07
4.965222700691782e-06
-1.699160003280297e-07
6.169083348941511e-06
-2.466111791011671e-07
7.432014516286309e-06
-3.399215918667327e-07
8.771596299883641e-06
-4.506761708649896e-07
1.020544779480484e-05
-5.80563531816142e-07
1.175054121126279e-05
-7.298648716990363e-07
1.342361917232377e-05
-9.018727264232805e-07
1.524073294675119e-05
-1.098948834402473e-06
1.721789144801052e-05
-1.320668830831563e-06
1.937215638669416e-05
-1.569871173117917e-06
2.17210996675355e-05
-1.852221539285155e-06
2.428206883569841e-05
-2.167566752178969e-06
2.707327102908484e-05
-2.517133616316351e-06
0.002597493388932707
-0.0003407474692002097
0.002852385244955665
-0.0003708584717443245
0.003128734551929478
-0.0004041549812330725
0.003428097549681589
-0.0004413593803850995
0.003755216843102113
-0.0004833225141113844
0.004118631403296487
-0.0005308728768223174
0.004531574872280472
-0.0005838587525797965
0.005017923310346354
-0.0006370709779993143
0.005637765805182284
2.495457291238547e-07
-2.110344808505445e-09
8.680683034696787e-07
-1.083756244682376e-08
1.693046591693697e-06
-3.032525821159184e-08
2.717517739158165e-06
-6.395423649003651e-08
3.853573869740958e-06
-1.124977178203278e-07
5.032879701893872e-06
-1.762194133995569e-07
6.255195031865559e-06
-2.560277181706282e-07
7.538072484095244e-06
-3.526692020078367e-07
8.899511059739404e-06
-4.678367569619295e-07
1.035738059415732e-05
-6.026084950747831e-07
1.192890423129382e-05
-7.589265607973388e-07
1.363071019156037e-05
-9.369558966253122e-07
1.547945516408024e-05
-1.140594916874667e-06
1.749143315890191e-05
-1.372490593144166e-06
1.96834685339204e-05
-1.631980885111604e-06
2.207353179427167e-05
-1.922303286557225e-06
2.467965452130634e-05
-2.249807188248532e-06
2.751994050907803e-05
-2.614236153432813e-06
3.061375211168012e-05
-3.017121948538954e-06
3.398121971992825e-05
-3.462416945442344e-06
0.002631892575955433
-0.0003476312586223425
0.002889624382477719
-0.0003779866030491485
0.003169284979525301
-0.0004114088955771888
0.003472597004194404
-0.0004486544335097122
0.003804498883156523
-0.000490641417546311
0.00417368318596548
-0.0005383742931793405
0.004593000760820773
-0.0005922987617048402
0.005083430085182441
-0.0006493655230948685
0.005693055668333617
-0.0006923608362514825
2.517117865074584e-07
-2.166022581096625e-09
8.771504272974067e-07
-1.119244155836009e-08
1.713586894307311e-06
-3.13777530664587e-08
2.753396831376841e-06
-6.620574624419025e-08
3.906222324078106e-06
-1.166017713211596e-07
5.103282375890466e-06
-1.829004972004153e-07
6.34484814580067e-06
-2.65872537626155e-07
7.648677711554807e-06
-3.666329981899842e-07
9.032892635828268e-06
-4.860507998728082e-07
1.051580026954034e-05
-6.262568625861148e-07
1.21148814432534e-05
-7.885854467176024e-07
1.384698132541559e-05
-9.751977226084483e-07
1.572864071697891e-05
-1.186141450312208e-06
1.777677801028406e-05
-1.425939740813671e-06
2.000849273283051e-05
-1.697514811740429e-06
2.244157187128385e-05
-2.000020828253229e-06
2.509449645561344e-05
-2.337145203512645e-06
2.798600377471543e-05
-2.715870394003397e-06
3.113537126128922e-05
-3.135855276362368e-06
3.456317590448434e-05
-3.599077800112761e-06
3.829074038202689e-05
-4.11072317533152e-06
0.002428707018747298
-0.000327179107360744
0.002667535179309761
-0.0003554624973032584
0.002928305107255087
-0.0003863119806308917
0.003211510897278286
-0.000420212518600764
0.003519113189347466
-0.0004579250798345206
0.003856300538433217
-0.0005004560866853284
0.004231987855362908
-0.0005489460845721846
0.004658867965383964
-0.0006042414958607207
0.0051559516042513
-0.0006648202788046273
0.005762396163401564
-0.0007187060158777128
0.006586226349248899
-0.0007221041593742259
2.539335556412683e-07
-2.220987317054854e-09
8.865391851681606e-07
-1.155472279448866e-08
1.734915419768963e-06
-3.252093688250719e-08
2.790727995735685e-06
-6.870881474435892e-08
3.960987364016346e-06
-1.209717753173238e-07
5.176595743222121e-06
-1.899144235928287e-07
6.438274917602761e-06
-2.763273294856165e-07
7.763982176640276e-06
-3.811770237379335e-07
9.172155320351003e-06
-5.058957095451904e-07
1.068117749044243e-05
-6.514280628465731e-07
1.230899017656283e-05
-8.203658098795814e-07
1.40727086717138e-05
-1.0143124646623e-06
1.598906012946616e-05
-1.23561713698695e-06
1.807486092387421e-05
-1.484224376698579e-06
2.034783879863472e-05
-1.765285774115726e-06
2.282607879145093e-05
-2.082021750344337e-06
2.552794802266448e-05
-2.433472332887306e-06
2.847265198260858e-05
-2.823793393201395e-06
3.168005166497346e-05
-3.260550766251624e-06
3.517071729147917e-05
-3.743396588567341e-06
3.896653843392697e-05
-4.274875795958518e-06
4.309034632820505e-05
-4.861118264314797e-06
0.002242650845768475
-0.0003087206185009968
0.002462920159485512
-0.0003353557649224931
0.002704671642619904
-0.0003643155683810602
0.002968734816372317
-0.0003958922034614182
0.003255795878229232
-0.0004305969597228661
0.003568105513955902
-0.0004692048403336307
0.003911165932552782
-0.0005127904706030373
0.004294155864690291
-0.0005626240933470938
0.004729744862659068
-0.0006198229789637792
0.005235613859674265
-0.0006839037476609183
0.00584431258904964
-0.000746736700175489
0.006642212484996939
-0.000774692146483915
0.007869868434295133
-0.0006830656283926595
0.04476465230426629
-0.0001852601291295445
2.562138451809e-07
-2.281061998689107e-09
8.962446413851898e-07
-1.192523596025739e-08
1.75707609698286e-06
-3.371534325404454e-08
2.829586380269903e-06
-7.137930275453727e-08
4.01806832266681e-06
-1.257896939729331e-07
5.252992179841544e-06
-1.973690126476863e-07
6.535714263812404e-06
-2.873533040723391e-07
7.884289057474853e-06
-3.966342903672527e-07
9.317503024932813e-06
-5.265247321507644e-07
1.085401578300213e-05
-6.78734050459982e-07
1.251181888072513e-05
-8.542567750200576e-07
1.430851311440071e-05
-1.056170543643073e-06
1.626110978415573e-05
-1.286361972829435e-06
1.838658162156345e-05
-1.547337854725503e-06
2.070257957508462e-05
-1.838965159929618e-06
2.322784804041989e-05
-2.167054991875477e-06
2.598106709216594e-05
-2.535140814416244e-06
2.898139147286199e-05
-2.942211715921379e-06
3.224917523584577e-05
-3.392916943499768e-06
3.580552999885653e-05
-3.895363417475024e-06
3.967246953243729e-05
-4.449327671396682e-06
4.387341783820891e-05
-5.057947033972983e-06
4.843308215906997e-05
-5.728032108914786e-06
5.337776298741635e-05
-6.452816265545351e-06
0.002072449721636328
-0.0002919385075749876
0.002275452884269968
-0.0003170642986812652
0.002498650875490336
-0.000344451332289146
0.002743600346966553
-0.0003742844669764599
0.003011270520259347
-0.0004068512710770899
0.003302585447125425
-0.0004426817717970591
0.003620118389102468
-0.0004826098327497959
0.003969729069704656
-0.000527767975481675
0.004360893448810146
-0.0005795280536605497
0.004806318837884232
-0.0006391980669105829
0.00532275983764829
-0.0007069689544154676
0.005937850839521567
-0.0007774419958286492
0.00672065891113859
-0.0008251831245160789
0.007872867945619413
-0.0007776916558976311
0.009836607982065501
-0.000530369584043868
0.03992287822151419
0.0001315425667586843
0.04255370321112798
2.330573991603037e-06
0.04486075572948855
-0.0001337556573843102
0.04709457773351459
-0.0002794359713710504
0.04942493143018482
-0.0004379856525831904
0.05195962040499428
-0.0006128749951654902
2.585571560214668e-07
-2.34331680841019e-09
9.062830332358616e-07
-1.232065426047669e-08
1.780109857329846e-06
-3.495784837796997e-08
2.870070612494293e-06
-7.419952465139816e-08
4.077566089937697e-06
-1.308770510152788e-07
5.332734092613051e-06
-2.055315356524031e-07
6.637406528481607e-06
-2.99061777018105e-07
8.009924436417516e-06
-4.129882708825837e-07
9.469318966353628e-06
-5.484502738156427e-07
1.103459193029476e-05
-7.071008961128807e-07
1.272397475840964e-05
-8.908899509897997e-07
1.455511568017493e-05
-1.100859374711647e-06
1.654553128526057e-05
-1.340592149322601e-06
1.87124884632722e-05
-1.612268576628758e-06
2.107376356081258e-05
-1.918521837937399e-06
2.364810796989805e-05
-2.259225108164949e-06
2.645487134387699e-05
-2.640859207950196e-06
2.951351193138087e-05
-3.067261269702842e-06
3.284442429487474e-05
-3.53746073389896e-06
3.646923647153558e-05
-4.05662339338887e-06
4.0410473844658e-05
-4.633367701844893e-06
4.469180617710059e-05
-5.267715940454029e-06
4.933850077935083e-05
-5.963365648602104e-06
5.437749008123402e-05
-6.727759336272404e-06
5.983763714680203e-05
-7.555068895455692e-06
0.001916472379063668
-0.0002766423854161008
0.002103862488697221
-0.0003003553529015927
0.00230980252419572
-0.0003262881455351784
0.002536198739462904
-0.0003546121605072682
0.002784677469217353
-0.0003855284533108878
0.003056346366564946
-0.0004193603130122816
0.003352401195070048
-0.0004566670172291253
0.003675776747655518
-0.0004983401275752303
0.004032706121047779
-0.000545586881836125
0.004432972023711563
-0.0005998465478671065
0.004889330474099797
-0.0006625396868477856
0.005417828200440168
-0.0007342664265625857
0.006042367130335138
-0.0008114852418525933
0.006818328237950442
-0.0008751113184647104
0.007912410725981749
-0.0008647258999523772
0.009731662961077499
-0.0006727466292287699
0.01282514834693378
-0.0002759999353270024
0.03263966638404723
0.0003544252930705204
0.03676345512437189
0.0002646622799454439
0.04001940254810308
0.000158063542510528
0.04264281498524367
4.243077739929267e-05
0.0449448713909469
-8.178509996460314e-05
0.04717739980138831
-0.0002165777354531369
0.04951025627960415
-0.0003647608289666466
0.05205113578809049
-0.0005295010368523229
0.05486951154124857
-0.000714171272271352
0.05801438638883999
-0.0009222486494458297
2.60973192908543e-07
-2.41607389913456e-09
9.166788255415504e-07
-1.273912247640309e-08
1.804063093824455e-06
-3.627501564081535e-08
2.912272737039385e-06
-7.715905315838583e-08
4.139644604943046e-06
-1.36277999470818e-07
5.415954554577243e-06
-2.14097506054008e-07
6.743683736614988e-06
-3.118086868774976e-07
8.141213155782611e-06
-4.303509710608535e-07
9.628030186795085e-06
-5.716992547481328e-07
1.122338130858434e-05
-7.372397187566395e-07
1.294583260869214e-05
-9.289587447585947e-07
1.481324427159492e-05
-1.149018589131419e-06
1.684319539834516e-05
-1.398523487767636e-06
1.905346565638764e-05
-1.6815695478112e-06
2.146212895490579e-05
-2.00063389114518e-06
2.408808049787964e-05
-2.358494379232969e-06
2.695076998090309e-05
-2.755123756033694e-06
3.007029328438605e-05
-3.197640527968956e-06
3.346735878680163e-05
-3.690195739484052e-06
3.716373922722217e-05
-4.231963403065029e-06
4.118250306919245e-05
-4.828652597974834e-06
4.554781350156201e-05
-5.489374973781988e-06
5.028529367665933e-05
-6.214508831007787e-06
5.542244540272121e-05
-7.008320759093684e-06
6.098882339057423e-05
-7.87894558826398e-06
6.695998425622257e-05
-8.815457907626242e-06
0.001773251497802252
-0.0002626806139027849
0.00194656600185035
-0.0002850863584100228
0.002136861664143232
-0.0003096415592649575
0.002346000192604633
-0.0003365530196615078
0.002575923847681827
-0.000366013252634959
0.002828323956403871
-0.0003982586470630144
0.003104471318089924
-0.0004336534029883694
0.00340584950173408
-0.000472808617377083
0.003735777134382737
-0.0005166674025081681
0.004100868714824568
-0.0005665027206698102
0.004511185407214284
-0.0006238002639091933
0.004979495549120422
-0.0006900116209564615
0.005521223777648818
-0.0007659352623636937
0.006157324634160132
-0.0008492239288667159
0.006932388262172894
-0.0009255452645717592
0.007982775649689043
-0.0009454762409808186
0.009672425323489069
-0.0008054882616470417
0.01259421177971442
-0.0004418100611981715
0.01698533241095471
-1.293553734360842e-05
0.02227285084330548
0.000263480198764471
0.02770812208698512
0.0003580697266895068
0.03269974927938067
0.000341525658272713
0.03684402336902208
0.0002738570330570144
0.04009984935193613
0.0001842154748892313
0.04271835310805396
8.252540956881392e-05
0.04501679395891026
-2.949180021852564e-05
0.04724867866732331
-0.0001530639759350117
0.04958420632883614
-0.0002905277946142639
0.05213111574181383
-0.0004447407873256662
0.05495888239428923
-0.0006188718899283152
0.05811648132891205
-0.0008162662107313303
0.06164317188494147
-0.00104035846558511
0.0655745825072693
-0.001294642081827096
2.634723486585264e-07
-2.499196347230229e-09
9.274742760309932e-07
-1.321159377507584e-08
1.829001923847065e-06
-3.767795739105845e-08
2.95628373276989e-06
-8.028692058672896e-08
4.204458728105217e-06
-1.419725186574676e-07
5.502892786162496e-06
-2.232161955489495e-07
6.854723432621114e-06
-3.251371922776131e-07
8.278566719911941e-06
-4.491621991050282e-07
9.794064218830127e-06
-5.963852543429702e-07
1.142092703261691e-05
-7.692447242227223e-07
1.317797607033188e-05
-9.693832132541166e-07
1.508340059462491e-05
-1.19911508204241e-06
1.715497115276523e-05
-1.460794364576008e-06
1.941055391958194e-05
-1.755611779814033e-06
2.186872998290085e-05
-2.088170616543679e-06
2.454873524226136e-05
-2.46128845834236e-06
2.747018934546053e-05
-2.877913736928345e-06
3.065335794637808e-05
-3.338188441148454e-06
3.411956570768366e-05
-3.849847412143245e-06
3.789091542600831e-05
-4.417371919275772e-06
4.199073730489359e-05
-5.040197611099454e-06
4.644377262798952e-05
-5.724611697886645e-06
5.127613126713003e-05
-6.480212542962055e-06
5.651578536358491e-05
-7.307848727505331e-06
6.219294774139395e-05
-8.21244514615911e-06
6.827685130198978e-05
-9.195812745130312e-06
7.492132128723158e-05
-1.026063337456288e-05
8.211018388738637e-05
-1.142047840887445e-05
0.001641638384436362
-0.0002498645349030718
0.001802148259286512
-0.0002711196257828365
0.001978293237474322
-0.0002944078484500479
0.00217174768740183
-0.0003199723804404717
0.002384408304607086
-0.0003480496702219543
0.002618248316367926
-0.0003788774878032234
0.002875042852166579
-0.0004127321467087101
0.00315623573417161
-0.0004500230609573799
0.003463609710901134
-0.0004914136107708897
0.003800869822473219
-0.0005379013049937623
0.004174999499603342
-0.000590798185989037
0.004596283388730714
-0.0006516006998732203
0.005077414689029996
-0.000721719401328909
0.005633187073371891
-0.0008019749140074177
0.006282106736401955
-0.0008907173613091961
0.007060232748319744
-0.0009770684109743186
0.008078307032609365
-0.001021076642752502
0.009654570865946378
-0.0009276217780168196
0.01239285394263267
-0.0006041304183061138
0.01670198166571253
-0.0001584593082284775
0.02208999915544577
0.0001699161581443514
0.02766088118349436
0.0003107211038837558
0.03273108413481718
0.0003267348658155902
0.03690345771609832
0.0002820913046030274
0.04016380916438274
0.0002098972183180603
0.04278007812099417
0.0001224904534491746
0.04507634183341969
2.297752648049864e-05
0.04730824904995146
-8.906218976267695e-05
0.04964661500673621
-0.0002154726603107017
0.05219938426412962
-0.0003587963181261599
0.05503613654118862
-0.0005219949377651054
0.0582058885946425
-0.0007082791581701407
0.06174790602881516
-0.0009210003536519357
0.06569782659963296
-0.001163602556695861
0.07009073266469666
-0.001439626714513268
2.660552557249475e-07
-2.582563334480657e-09
9.387038346434037e-07
-1.372882739026088e-08
1.855024562447923e-06
-3.923428984161171e-08
3.002228567197949e-06
-8.362280437675379e-08
4.272151555690447e-06
-1.479803767195415e-07
5.59378037651825e-06
-2.328595921470529e-07
6.970850201130129e-06
-3.393429368127493e-07
8.42222447237026e-06
-4.687949449027705e-07
9.967925315309109e-06
-6.230232517773045e-07
1.162777890969203e-05
-8.032374362967157e-07
1.34210817941173e-05
-1.012350327011335e-06
1.536629725690475e-05
-1.252279934049227e-06
1.748151950934859e-05
-1.525663434505358e-06
1.978478792259533e-05
-1.835028413743079e-06
2.229479957392145e-05
-2.181681363586389e-06
2.503132994891366e-05
-2.570765471455285e-06
2.80143742348428e-05
-3.00547330831957e-06
3.126437571484234e-05
-3.488931512590254e-06
3.480292208179985e-05
-4.021544828778743e-06
3.865271093582992e-05
-4.611642889306927e-06
4.283742812693244e-05
-5.264062708030975e-06
4.738220741743334e-05
-5.978632330702448e-06
5.231378379370791e-05
-6.762264202475459e-06
5.766062314928138e-05
-7.6250502796478e-06
6.34535382160387e-05
-8.568439206164632e-06
6.965438708093803e-05
-9.589980768865925e-06
7.643230713441271e-05
-1.070679860810163e-05
8.376559854376854e-05
-1.191604771888312e-05
9.169752712483143e-05
-1.323210249725059e-05
0.0001002759762925801
-1.467334181357212e-05
0.001385215013534128
-0.0002194313903893436
0.001520736963705484
-0.0002380028508517861
0.001669484872265074
-0.0002582687188199209
0.001832730493333222
-0.000280446767915765
0.002011956392082835
-0.0003047827791555061
0.002208886101043093
-0.0003315462614670768
0.002425451441782068
-0.0003610155172144816
0.002663674698662104
-0.0003934760511276034
0.00292541874414056
-0.0004292533780447521
0.00321230371337855
-0.0004688001246719192
0.0035264092943996
-0.000512822643804221
0.003871814957221032
-0.0005623587441006075
0.004255831210833823
-0.0006187330140745678
0.00468888462651729
-0.0006833994220303098
0.005183469750735116
-0.0007576557605524679
0.005753673378152735
-0.0008422057053672474
0.006415863880414778
-0.0009357320574910871
0.007199320442434905
-0.001029805055360024
0.00819358029972783
-0.001092341678354151
0.009672318797142856
-0.001038824574147712
0.01222460549484706
-0.0007593733303119654
0.01640584420866552
-0.0003079929612650219
0.02186140902302111
7.013082366355986e-05
0.02757123218339848
0.0002595651550712227
0.03273181582063626
0.0003099894169130724
0.03694090777622772
0.0002892847991167153
0.04021089239389971
0.0002350080774704145
0.04282777376440984
0.0001622015698038179
0.04512335809506598
7.54741845532578e-05
0.04735597030866028
-2.474373957017226e-05
0.04969734058625562
-0.0001397877773655061
0.05225579007369424
-0.000271878474282565
0.05510110727203783
-0.0004237670488923862
0.05828242087242285
-0.0005985272143963764
0.0618390520549529
-0.0007994251877076831
0.06580668063585668
-0.00102985439348337
0.07022045762080538
-0.001293327510277026
0.0751165852074078
-0.001593505759517568
0.08053303476852017
-0.001934246414388944
2.687235861137934e-07
-2.668788048758732e-09
9.503880009244011e-07
-1.426620965683646e-08
1.88220348724896e-06
-4.090781358355716e-08
3.0502774633321e-06
-8.728324985193099e-08
4.342913463232581e-06
-1.543847113953601e-07
5.688825492574029e-06
-2.430260012020801e-07
7.092388337102116e-06
-3.543973939371205e-07
8.572606552736896e-06
-4.897249906412539e-07
1.014993753153139e-05
-6.508071569101605e-07
1.184455071887917e-05
-8.397950208284958e-07
1.367584329059295e-05
-1.05799905931746e-06
1.566276537765642e-05
-1.308818282400219e-06
1.78237080137257e-05
-1.594468465617783e-06
2.017702416867632e-05
-1.917899693993854e-06
2.274156740040271e-05
-2.281796259004172e-06
2.553731807954601e-05
-2.687669519822896e-06
2.858482654707213e-05
-3.141217784820437e-06
3.190491641025866e-05
-3.646013871174119e-06
3.551939018977692e-05
-4.205399612401992e-06
3.945131067631861e-05
-4.820144594621649e-06
4.372494270942824e-05
-5.499157434279035e-06
4.836581530437471e-05
-6.247670565450766e-06
5.340120175464485e-05
-7.06605027640184e-06
5.886025519453833e-05
-7.961896217763653e-06
6.477430883594571e-05
-8.945820880629419e-06
7.109652227993181e-05
-1.001057434652087e-05
7.801383173969711e-05
-1.117150543063243e-05
8.549754759837115e-05
-1.243874773938936e-05
9.359233529639939e-05
-1.381085608229873e-05
0.0001023470567253331
-1.530318288094416e-05
0.0001118156604046761
-1.693398638682983e-05
0.0001219935437457654
-1.869830806261685e-05
0.001284284566578975
-0.0002091504742940277
0.001409808131785198
-0.0002269597957760566
0.001547675384994187
-0.0002463698104811622
0.001699065373718148
-0.0002675833510105045
0.001865302391456775
-0.0002908406159567742
0.00204792462339484
-0.0003164149988745497
0.002248707220352947
-0.0003446038983691778
0.002469634584528405
-0.0003757294032425906
0.00271278444320043
-0.0004101252603643395
0.002980105358846702
-0.0004481626648301501
0.003273383817555028
-0.0004903334816727966
0.003594980147132754
-0.000537370976039604
0.003949314913815819
-0.0005903225984395653
0.004343960924684981
-0.0006504884564806227
0.004789377527821981
-0.0007192259146514054
0.005297716953095758
-0.0007976466233107311
0.005882251026854311
-0.0008862334070489472
0.006557410221577554
-0.000983752043384716
0.00734706590955418
-0.001083477520760566
0.008323490302891244
-0.001159715053917471
0.009719183392492378
-0.001139206268490322
0.01209039643862365
-0.0009046155123437407
0.01610508769483446
-0.0004586168101526078
0.02158853385522069
-3.511778676316304e-05
0.02743672004652591
0.0002046429645712394
0.03270015174967576
0.0002912292238269925
0.03695553896698763
0.0002953582241800046
0.04024072870407285
0.0002594484887282381
0.0428612469843709
0.0002015348522719796
0.04515771080024181
0.0001278488581865122
0.04739172715186941
3.971733597340847e-05
0.04973626706983694
-6.367022845733082e-05
0.0523002075428213
-0.0001842052476348901
0.05515365357226142
-0.0003244247779356056
0.05834591675928389
-0.0004872629383859643
0.06191642344625679
-0.0006758986050261315
0.06590092884048514
-0.0008936733912833252
0.07033467438580988
-0.00114407116009558
0.07525399487848027
-0.001430737179658517
0.08069704740717797
-0.001757518394462317
0.08670419947054821
-0.002128509445938999
2.714833114138733e-07
-2.759408095839572e-09
9.625462989887002e-07
-1.48278040690242e-08
1.910609379733322e-06
-4.267160928903127e-08
3.100550470118839e-06
-9.118088281963949e-08
4.416990362796685e-06
-1.61360187934411e-07
5.788295009446056e-06
-2.538542383654586e-07
7.219629356060167e-06
-3.70267327674504e-07
8.730146124488031e-06
-5.119366651645423e-07
1.03406295778988e-05
-6.804170165697459e-07
1.207167956370891e-05
-8.77936006199697e-07
1.394300476302389e-05
-1.106956454673511e-06
1.597366646535466e-05
-1.368900355973487e-06
1.818254798872623e-05