/*--------------------------------*- C++ -*----------------------------------*\
| =========                 |                                                 |
| \\      /  F ield         | OpenFOAM: The Open Source CFD Toolbox           |
|  \\    /   O peration     | Version:  2006                                  |
|   \\  /    A nd           | Website:  www.openfoam.com                      |
|    \\/     M anipulation  |                                                 |
\*---------------------------------------------------------------------------*/
FoamFile
{
    version     2.0;
    format      ascii;
    class       volVectorField;
    location    "518";
    object      U;
}
// * * * * * * * * * * * * * * * * * * * * * * * * * * * * * * * * * * * * * //

dimensions      [0 1 -1 0 0 0 0];


internalField   nonuniform List<vector> 
28642
(
(0.02748601834508281 -0.003417892819682282 -5.326356562202032e-21)
(0.02767287824936735 -0.003442590560583412 5.442214668125359e-21)
(0.08511868644214213 -0.01057873359889809 8.616404863710081e-21)
(0.02785957234617349 -0.003467271500706676 -1.675321101890275e-25)
(0.08571167698279984 -0.01065679821237841 8.804530098845401e-21)
(0.148202498003193 -0.01841503015539996 -1.12222425637813e-24)
(0.02804540853381395 -0.003491610546585279 -5.681265351525285e-21)
(0.08630477844847206 -0.0107348780793697 -2.710902811131794e-25)
(0.1492678247980054 -0.01855489162429988 -9.392202634622578e-21)
(0.2141141071953303 -0.02660023487851224 -9.036113610294603e-21)
(0.02823082631311557 -0.00351588906315678 5.805331772552071e-21)
(0.08689669872302162 -0.01081207983617002 9.195184489590725e-21)
(0.1503351920392245 -0.01869500797296198 0)
(0.2156476782967756 -0.02680142791084153 5.694528944577062e-25)
(0.2755009958080455 -0.03422057144906124 7.966393497481758e-21)
(0.02841786739215772 -0.003540478760666667 -5.931714289041457e-21)
(0.08748871313875066 -0.01088925297840655 -5.73406949314796e-25)
(0.1514036821294854 -0.01883398713872569 -1.96033765381717e-20)
(0.2171852977966886 -0.02700311637936473 0)
(0.277371379051082 -0.03446643633900096 1.002630854762931e-24)
(0.3270829879206817 -0.04062026202119395 0)
(0.02860589236153797 -0.003564998027723015 -1.873226465174259e-25)
(0.0880861792547587 -0.01096742132523028 9.602831514221018e-21)
(0.1524754627346257 -0.01897328765897997 6.03253913614987e-25)
(0.2187270240091178 -0.0272034713048177 1.917926547612857e-20)
(0.2792460807554328 -0.03471280149401473 0)
(0.3291735298776237 -0.04089572284092073 -8.156665766629721e-25)
(0.3695922721936408 -0.04589050504296745 6.869929314071454e-25)
(0.02879366252800082 -0.003589321724634577 3.095826443433105e-21)
(0.08868798686298365 -0.01104553254962764 2.955055151624781e-25)
(0.1535584123716269 -0.01911451544251282 1.022743616922507e-20)
(0.220275643394729 -0.02740452363652022 9.781299674673787e-21)
(0.2811259531790217 -0.03495743680189855 -8.415016947516511e-21)
(0.331267973729057 -0.04117158756195916 -6.884880751165073e-21)
(0.3718411013651439 -0.04618733855197326 0)
(0.40516195069495 -0.05029620162779277 -4.72723576140871e-21)
(0.02898312538342313 -0.003614028619953606 1.955732553873109e-25)
(0.08929110119586006 -0.01112329586485508 -6.118611239423928e-25)
(0.1546518636375468 -0.01925601497891262 1.655837864777316e-26)
(0.2218405899170764 -0.02760834851819508 -1.99518125100598e-20)
(0.283013745775507 -0.03520280202182337 -8.565265879936104e-21)
(0.3333680064938057 -0.04144532949341338 7.004653921538654e-21)
(0.3740934191938451 -0.04648446616852248 5.751973091037783e-21)
(0.4075274313798753 -0.05060880024229247 0)
(0.4354176058050852 -0.05403931243137392 4.092558962081193e-21)
(0.02917509014529063 -0.003638994140969029 6.462696027137707e-21)
(0.08990027785039476 -0.01120231855049275 3.167280025320249e-25)
(0.1557518649523454 -0.01939743314682336 5.336146939377115e-21)
(0.2234222860116015 -0.02781277338781696 0)
(0.2849195911611687 -0.03545130368184291 -1.867456601680776e-25)
(0.3354758787003672 -0.04171968656572079 7.127814885801836e-21)
(0.376352004569551 -0.04677918903509409 -5.849698315571191e-21)
(0.409896430411833 -0.05092161962596589 0)
(0.4378748761250311 -0.05436422910551299 1.003225682634531e-24)
(0.4616366477598609 -0.05727842389685391 -8.920162399681312e-25)
(0.029367974002516 -0.003663918861451851 -4.028047830661738e-25)
(0.09051809594432934 -0.01128224003637744 -5.233645833968527e-21)
(0.1568648858034858 -0.01954132311292173 6.562630611833195e-25)
(0.2250164886141628 -0.02801745261066604 -5.186135355127816e-21)
(0.2868450960538139 -0.03570035221982523 -1.097712115551431e-24)
(0.3376018108302861 -0.04199726635264311 7.249408953201976e-21)
(0.3786184179033898 -0.04707441676608611 -5.948711352055992e-21)
(0.4122727838751074 -0.05123186105744709 -4.969309052472485e-21)
(0.4403368306433267 -0.05468940959284459 -1.045939715415605e-24)
(0.4641703847933229 -0.05761344032292322 0)
(0.4847701188963162 -0.06013151787798208 0)
(0.02956166790572721 -0.003688808105822431 2.085064585197617e-25)
(0.09114079179772457 -0.01136229289891665 -5.346481808437685e-21)
(0.1579954352313371 -0.0196870826748533 -6.882062865719696e-25)
(0.2266301673002571 -0.02822572738559329 6.367734632023727e-25)
(0.2887858212680949 -0.03594961450483611 -4.518220260648866e-21)
(0.3397485825954045 -0.04227519020820661 0)
(0.3809024525004436 -0.04737284527769781 0)
(0.4146572124995003 -0.05154252556854185 -3.141560354511958e-26)
(0.4428078016697092 -0.05501195514777547 8.605669243058957e-21)
(0.4667115745150417 -0.05794893655012999 8.997848428327896e-25)
(0.4873714975700879 -0.06047524238427448 0)
(0.5055083044769104 -0.06268410345140565 -1.457773313404421e-24)
(0.5216180253754287 -0.06463846389296687 0)
(0.7007976872576684 -0.04114255525024411 -7.017278216507578e-20)
(0.02975769310140986 -0.003714138320070321 -2.071603071275835e-25)
(0.09176812232729824 -0.01144248762106367 0)
(0.1591387435947732 -0.01983360811331734 5.681257071448944e-21)
(0.2282695476571155 -0.02843674520128176 -6.665372510106818e-25)
(0.2907483396776969 -0.03620300573140422 -4.597707116806975e-21)
(0.3419117038701893 -0.04255315119322691 3.74819794938334e-21)
(0.3832079163972327 -0.04767140209563833 -6.14962481321492e-21)
(0.4170586765573983 -0.051856308150106 -1.270134497399492e-24)
(0.4452874592057843 -0.05533488642943721 0)
(0.4692639129008779 -0.05828183784291387 -3.796793873629582e-21)
(0.4899840795313952 -0.06081976176429846 -1.61512643595137e-24)
(0.5081741601074613 -0.06303586302477494 0)
(0.5243493077665314 -0.06499772705674715 -1.311457504240298e-24)
(0.5388622153558734 -0.06675020088221351 -2.402142820889603e-24)
(0.7142559122722468 -0.04894810898138036 -4.939904155510257e-21)
(0.7079390604419483 -0.04384441784416177 -4.773004178057111e-21)
(0.6999815512077443 -0.03786279145300736 4.243951186093007e-20)
(0.02995701964699265 -0.00373988427764092 3.515059463977803e-21)
(0.09240394238335438 -0.01152417256910007 6.71334962350356e-25)
(0.1602946690814181 -0.01998093168435946 6.981830194240422e-25)
(0.2299298634132088 -0.0286491861587837 5.491258212115826e-21)
(0.2927400304367136 -0.03645942564836362 0)
(0.3440968916216127 -0.04283543265032596 3.810522277618955e-21)
(0.3855305278379602 -0.04796983382978669 7.727272920987576e-25)
(0.4194816912407963 -0.05216998852866057 -1.671884471873908e-25)
(0.44778367606918 -0.05566083405417242 0)
(0.4718258306081351 -0.0586151241676373 9.301547709535577e-25)
(0.4926099421703662 -0.06116176315604006 4.204409331376473e-26)
(0.5108538989633445 -0.06338857959270391 0)
(0.5270800909382731 -0.06535731571158819 1.367881497419977e-24)
(0.5416576645763905 -0.06711729224770632 -2.532253704751787e-21)
(0.5548550883306879 -0.06870269013228418 0)
(0.7211021332830625 -0.05102946388588279 1.476439910225224e-20)
(0.7148318243722809 -0.04623782398296422 3.338438500823165e-20)
(0.7069297235522823 -0.04062356970149485 -1.862447575337931e-20)
(0.6982501164506253 -0.03416449192710076 0)
(0.03015847644677975 -0.003765776742215586 0)
(0.09305114182677392 -0.01160726858260009 -7.048470682781527e-25)
(0.1614686882673591 -0.02013122610470837 -7.324503553234402e-25)
(0.2316109736910161 -0.02886308490441846 6.921866095676141e-25)
(0.2947566226927094 -0.03671742677337809 1.200721716429232e-25)
(0.3463122418884406 -0.04312072443687795 0)
(0.3878750012519055 -0.04827264469482848 0)
(0.4219223668356114 -0.05248338600505095 0)
(0.4503013287137938 -0.05598645050134536 4.520768939107609e-21)
(0.474404037983914 -0.05895132545238919 -9.701241545770274e-25)
(0.4952463505632342 -0.06150416074792873 1.713092790599061e-24)
(0.5135483345249491 -0.0637387975734255 0)
(0.5298247928532417 -0.0657176821954714 2.816946243886762e-21)
(0.5444539914229148 -0.06748453820621353 2.579327850446083e-21)
(0.5577135628836252 -0.06907719015803261 2.380451858245027e-21)
(0.5698043887181046 -0.0705213036088904 0)
(0.7317503539528876 -0.05663868176799733 4.841903420206904e-21)
(0.727676047532534 -0.05287955311562938 1.952151405945799e-22)
(0.7214743227973293 -0.04836480030676447 -4.688331799894487e-21)
(0.7136567624518988 -0.04307412147186906 -2.161530400770073e-22)
(0.7050742828381532 -0.03698640667149868 1.710873531992085e-20)
(0.69667236195857 -0.03013340595706619 8.210403013894684e-21)
(0.03036183058049063 -0.003791789234079358 0)
(0.0937071606108333 -0.0116910937238592 5.814950787278735e-21)
(0.1626656267481121 -0.02028435356403855 -7.269394346478327e-25)
(0.2333189617340996 -0.02908129916401154 -5.699065553054288e-21)
(0.2967975448803141 -0.03697699043217084 -4.836157768041359e-21)
(0.3485543155992515 -0.0434075405845297 -3.934570969637501e-21)
(0.3902497620379272 -0.04857834490390796 0)
(0.4243845184958329 -0.05280113971292733 2.695181397229758e-21)
(0.4528369885198549 -0.0563116330187329 -1.135712478484322e-24)
(0.4770034823740181 -0.05928697767100887 -9.608733019090969e-25)
(0.4978989729299808 -0.06184937533216936 3.522985642629599e-21)
(0.5162541097978152 -0.0640894012808961 1.521753936398113e-24)
(0.5325842758805737 -0.06607541981152613 2.862512835497354e-21)
(0.5472614839431243 -0.06785203462442989 -2.623976774401176e-21)
(0.5605707971943261 -0.06945128532096188 2.552940599492059e-24)
(0.5727187733012985 -0.0709020208966922 0)
(0.5838401886468628 -0.07222170523080029 -4.158631506445995e-24)
(0.738033626365487 -0.05812738975249675 -1.408860050358457e-20)
(0.7339968748630591 -0.05454735270671578 -9.152255445311491e-21)
(0.7278723692888612 -0.0502691309392434 -8.944317829182283e-21)
(0.7201573730761359 -0.04526120744506654 -8.808811372501092e-21)
(0.7117034206392814 -0.0394990685485062 -1.667936112120981e-20)
(0.7034310985484353 -0.03301487811085266 -4.913430183257387e-23)
(0.6961823607690758 -0.02573711921361992 -7.553227436883605e-21)
(0.03056736152022709 -0.00381799751948214 0)
(0.09437143276652396 -0.01177557776108812 -2.967731902690041e-21)
(0.1638826515968903 -0.02043934152400175 -6.16106585094607e-21)
(0.235060201525747 -0.02930360385021688 -5.80210912600345e-21)
(0.2988685586321808 -0.03724144703681191 4.915299385199659e-21)
(0.3508220356934433 -0.04369579986533813 7.992529434724348e-21)
(0.3926523555972605 -0.04888547047342953 1.577537648358191e-24)
(0.4268765500152135 -0.0531215952663732 2.737211137937557e-21)
(0.4553937744232897 -0.05664110621378059 -2.33272679606806e-21)
(0.4796211661059939 -0.0596220483179287 1.002180254539148e-24)
(0.5005726341278878 -0.06219383793334005 1.725493832223558e-24)
(0.5189761379813884 -0.06444271930155475 -6.422301114966618e-21)
(0.5353555315817051 -0.06643347936265444 0)
(0.5500828141233607 -0.06821663992303946 -2.668942801617163e-21)
(0.5634371333353994 -0.06982517558034632 -2.468702807405372e-21)
(0.5756312611569511 -0.07128203293473025 -2.295006103447256e-21)
(0.586805236459859 -0.0726077500315839 0)
(0.5970527962624343 -0.0738146177054816 3.958627550783832e-24)
(0.7461258757203253 -0.06235042593473264 2.284680729135522e-20)
(0.7440787343239761 -0.05949063736631885 -2.741760838088212e-20)
(0.7400763137030718 -0.05606238930294016 8.928576142419422e-21)
(0.734030987753035 -0.0519834432198006 3.534936704583863e-20)
(0.726431940864471 -0.04721928221534304 0)
(0.7181271583348341 -0.04174538504603214 -8.015075755084583e-21)
(0.7100164273196403 -0.0355881499777171 0)
(0.702883096916566 -0.02867390267446015 -5.398787827372289e-23)
(0.6972615708188766 -0.02092517382805339 1.344453444187986e-20)
(0.03077657754719293 -0.003844834749686657 -1.906354304995311e-21)
(0.0950448729165068 -0.01186094616633755 0)
(0.165119143180845 -0.02059609826436411 3.141042252350737e-21)
(0.2368323456974433 -0.02952883199429984 -7.310121490059701e-25)
(0.3009769135735356 -0.03751045097722965 1.048726377543825e-24)
(0.3531203462351333 -0.04398911180472093 0)
(0.3950814152832673 -0.0491939040083594 -6.650755733338788e-21)
(0.4293969198564645 -0.05344333282052492 2.7789534765907e-21)
(0.4579798360019538 -0.05697306588652698 -2.36779262043705e-21)
(0.4822597211352958 -0.05996131652996035 0)
(0.5032646831691339 -0.06253757074866301 -1.799778356032068e-24)
(0.5217190322731856 -0.06479509551269309 3.261886236638302e-21)
(0.5381430751481245 -0.06679413010106686 5.924787383634688e-21)
(0.5529159568420458 -0.06858143602155965 -2.714441228424651e-21)
(0.5663163990664463 -0.07019590337103671 4.898030518265473e-24)
(0.5785520872306141 -0.07166152084314831 4.666340274125132e-21)
(0.5897688820607203 -0.07299289371755001 0)
(0.6000634475071202 -0.07420507702760673 2.036875989434341e-21)
(0.6095051428142489 -0.07530725552404549 9.112897700471347e-26)
(0.6181419118514199 -0.07630362211796797 3.533978046233318e-24)
(0.7519787146424695 -0.06352189122569113 -2.688336860299528e-20)
(0.7499134403298707 -0.06075254756900728 -4.903030032548004e-20)
(0.7459331392892968 -0.05745138630750121 8.701037514604042e-21)
(0.7399599752503058 -0.05353814403022635 1.711065160626207e-20)
(0.7324832267233683 -0.04898000628625906 -1.648321166384673e-20)
(0.7243428723119965 -0.04375881588705988 7.938271465978275e-21)
(0.7164140645319901 -0.0378934031327493 0)
(0.7094272104122228 -0.03130501775259905 -1.398278011615546e-20)
(0.7038286381712671 -0.02391586777758634 -1.31390131970173e-20)
(0.03099013351488316 -0.003872199563444495 1.944362089622286e-21)
(0.09573137685605157 -0.01194842391061609 -5.705373099928316e-26)
(0.1663768535385204 -0.02075502439603505 7.93465869127372e-25)
(0.2386347073521222 -0.02975685923777232 0)
(0.3031209231419236 -0.03778270241700513 -5.072481973151052e-21)
(0.3554569059289641 -0.04428700934495811 4.11670803048849e-21)
(0.3975409103804817 -0.04950740213239682 -4.545900695876859e-26)
(0.4319442221268579 -0.05376623099252841 5.640557575479349e-21)
(0.4605943677744935 -0.05730613636931216 8.705119819217179e-26)
(0.4849269204640914 -0.06030284659588677 2.088584389280595e-21)
(0.5059774277558152 -0.06288538294984035 1.848582950059498e-21)
(0.5244803981539646 -0.06514658959072261 1.640239644943731e-24)
(0.540951305040571 -0.06715365385481137 -3.009011341980098e-21)
(0.5557652933021759 -0.06894866167201893 -2.76232529724222e-21)
(0.5692072255711508 -0.07056663140094251 2.547670790307075e-21)
(0.5814851080444881 -0.07203757971630445 0)
(0.5927403267590055 -0.07337720406870409 -2.213284766708983e-21)
(0.6030739662893744 -0.07459450445504018 3.994116980229701e-24)
(0.6125574338194179 -0.07570132023427933 -3.876684154040175e-21)
(0.6212406873394203 -0.07670430299909796 0)
(0.629156659972515 -0.07760556994534119 -3.405666737406401e-21)
(0.7582946295767646 -0.06690161042348772 1.317633955407139e-20)
(0.7576364235079404 -0.06461836631702471 -8.765827371415826e-21)
(0.7555493250615101 -0.06192617238400523 4.312168971793106e-21)
(0.7515820436709448 -0.05873011106314964 1.712215380351313e-20)
(0.7456727204683335 -0.05495571624210027 -8.401725039338264e-21)
(0.7383181733715171 -0.05057246659696176 -7.921381098929255e-21)
(0.7303515843890074 -0.045569871202895 -1.524113524761104e-20)
(0.7226185226645638 -0.03996243700959417 0)
(0.7157978099812344 -0.03366647195692612 1.507811433249653e-22)
(0.7102597475200234 -0.02659698857707872 0)
(0.7059814363546185 -0.01868630870486281 0)
(0.03120708874434158 -0.003899904021892042 1.982509124600618e-21)
(0.0964331094850171 -0.01203773566952888 -3.150835551648345e-21)
(0.1676614373145207 -0.02091808689676635 3.265983029444003e-21)
(0.240469532239997 -0.02998821334309453 -3.055603249914738e-21)
(0.3052996078798951 -0.0380580145101662 0)
(0.3578308326852087 -0.04458813446489179 4.177816340649167e-21)
(0.4000385281113348 -0.04982537628807036 3.42296479689021e-21)
(0.4345215532267006 -0.05409412051883659 0)
(0.4632360960591362 -0.0576402150367358 -2.440425242827969e-21)
(0.4876224894567441 -0.06064529712173617 -2.120046483353574e-21)
(0.5087182178212175 -0.06323522861335791 -1.875411524298892e-21)
(0.5272623173951065 -0.06550201659909204 -1.682991792365811e-21)
(0.5437780185703807 -0.06751213339537049 -1.532726291728686e-21)
(0.5586350506354644 -0.06931456593168014 -2.802255337432784e-21)
(0.5721139647478789 -0.07093957935689302 2.592517081957167e-21)
(0.5844291634809152 -0.07241338847495248 2.323510577145666e-24)
(0.5957230218626844 -0.07375779070116599 0)
(0.6060918235126592 -0.07498279564893078 -4.16245407926883e-24)
(0.6156104947450789 -0.07609413912228191 -1.968480445948969e-21)
(0.6243315780282384 -0.07710125478535507 1.847964325549583e-21)
(0.6322901996749606 -0.07800877737490543 -3.461836562719723e-21)
(0.6395127492763106 -0.0788178742945906 6.475269407367718e-21)
(0.7635406636206673 -0.06980297561108552 8.456996836462826e-21)
(0.7638216412726356 -0.06788356638596553 7.689102491607263e-23)
(0.7631254314910361 -0.06564954271910454 -4.324774534092812e-21)
(0.7610042569847051 -0.06302323018738482 -4.291738862530067e-21)
(0.7570361922652149 -0.05991325223655424 8.253118803151512e-21)
(0.7511818301711671 -0.05625348943980744 -8.002807631870087e-21)
(0.7439468128627921 -0.05201940615040723 1.552790631142367e-20)
(0.7361575552477537 -0.04720556760675611 1.47763198447864e-20)
(0.7286288973662843 -0.04182316576611887 2.070118813569732e-23)
(0.7219868151553195 -0.03578677776302795 -1.311135555601301e-20)
(0.7165323470873939 -0.02900692897872819 1.232794440632276e-20)
(0.7121669206935438 -0.02141429469872185 -1.11344143542813e-20)
(0.7090246241119054 -0.01275975465655061 9.808938174252209e-21)
(0.8053796079878589 0.09582724348986274 4.154750682572929e-20)
(0.03142751680650043 -0.003927960781596478 -2.428008661753243e-25)
(0.0971481745892806 -0.01212844052547609 -3.213365692532946e-21)
(0.1689768308611986 -0.02108486456767589 0)
(0.2423431561978641 -0.03022544869436753 3.106168848596895e-21)
(0.3075149739854345 -0.03833694032658587 -1.35472595420716e-24)
(0.3602409550681283 -0.04489225459565133 2.116361894694929e-21)
(0.4025741970747673 -0.0501464581495549 -1.718048760777462e-24)
(0.4371363314480309 -0.05442628875658812 -2.901192454495559e-21)
(0.4659074538045096 -0.05797916882924547 -1.225200142862901e-24)
(0.4903453580370625 -0.06098859349688698 2.073988818375015e-24)
(0.511487126344955 -0.06358578905716725 -1.885816842186528e-24)
(0.5300717055648767 -0.06585924187031483 -1.692734852356935e-24)
(0.5466251118217561 -0.06787436432205118 0)
(0.561523169284659 -0.06967924216436981 1.422111120965551e-21)
(0.5750406757830443 -0.07131098777909331 2.63399675988506e-21)
(0.5873885906195563 -0.07279114809294271 -2.4516200120113e-21)
(0.5987158952812569 -0.07413781306224755 -2.286301760600304e-21)
(0.6091197532359468 -0.07536703897332017 -4.124380588953162e-24)
(0.6186701984100982 -0.07648549388784048 -2.011785730521589e-21)
(0.627423015606563 -0.07749656908657233 1.877537188110223e-21)
(0.635417218841837 -0.07840792570396404 1.758524715485328e-21)
(0.642679010069733 -0.07922290364235787 3.289285255147583e-21)
(0.6492337928370743 -0.079942557061777 6.364559038493469e-24)
(0.6551016719883246 -0.08057481118208604 -2.86224870507043e-21)
(0.7678917016443821 -0.07230540352191113 1.033431712503397e-23)
(0.7689172045116719 -0.07069072346124469 -4.318822181498042e-21)
(0.7691865242813543 -0.06880993076419264 -1.2583456467614e-20)
(0.7684511027633798 -0.06661920290268561 3.354693085619452e-20)
(0.7662900375551616 -0.06404789455333192 -8.36742575107357e-21)
(0.7623085236962429 -0.06101018656043133 -8.19042567221052e-21)
(0.7564987886233903 -0.05744610171157498 7.929644585703821e-21)
(0.7493793437025944 -0.05333847676530536 1.49114135893497e-20)
(0.7417676664688098 -0.04868753290060879 1.326082797805498e-22)
(0.7344471292348759 -0.04350007563825661 -1.518548665757954e-23)
(0.7279914214416298 -0.03769121964396484 6.393555976100235e-20)
(0.7226347797826352 -0.03116949113881845 0)
(0.7182230946354996 -0.02385778572013834 0)
(0.7147951932503163 -0.01551974472360549 6.681569327951813e-23)
(0.7130556584693645 -0.005945962213313902 7.948965182713194e-21)
(0.7823581882757564 0.0742689750340548 0)
(0.7947665187730295 0.08489442266426232 -4.957691982800117e-22)
(0.8061773901461746 0.09468490603694689 -4.188378348426607e-20)
(0.8166848031003381 0.1036102206536237 3.727057606525353e-20)
(0.8264194355346623 0.1117112362995206 -3.303111397818001e-20)
(0.8354994834344123 0.1190464662930212 -1.200823900488649e-22)
(0.03165164480902651 -0.003956408273001586 2.365550194367707e-25)
(0.09787681683952049 -0.01222056702108899 3.274397350951715e-21)
(0.1703212878488098 -0.02125478736018581 -8.145920470756751e-25)
(0.2442609576353912 -0.03046798648627609 -3.155755112742879e-21)
(0.3097730438657563 -0.03862240289918766 -2.644716849670549e-21)
(0.36268877841149 -0.04519990246572939 2.146457647733626e-21)
(0.4051467801815871 -0.05047040230442391 -1.759724010590215e-21)
(0.4397891220615819 -0.05476136922934898 0)
(0.4686154326046461 -0.05832216662210703 2.508722444098301e-21)
(0.4930975153853726 -0.06133661798058172 -2.18659796137529e-21)
(0.5142832858835131 -0.0639370162942226 0)
(0.5329088474614078 -0.06621696083012688 1.672712486461519e-24)
(0.5494990637921776 -0.06823814269484374 3.040069321557523e-24)
(0.5644313730931801 -0.07004744218476153 -1.444439620402067e-21)
(0.5779853281132509 -0.07168093918361734 0)
(0.5903672866018089 -0.07316711406183947 4.795230655024764e-24)
(0.6017232584491117 -0.07451944638582866 2.322336099689442e-21)
(0.6121566634034482 -0.07575033726176376 2.176694012817703e-21)
(0.6217385000883772 -0.07687244055936505 7.948221646948602e-24)
(0.6305196592470909 -0.07788999761989118 1.906700686877056e-21)
(0.6385425047536254 -0.07880477952450038 -1.785761153104635e-21)
(0.645837335860313 -0.07962323892883455 -1.669995255560599e-21)
(0.652426443103765 -0.08034809954649087 5.867842434724817e-24)
(0.6583363371799303 -0.08098063342765126 -2.906515104362379e-21)
(0.6635873805760731 -0.08152850735880583 1.043111765559656e-23)
(0.7713350985218996 -0.07444927813257379 1.619757250750052e-20)
(0.7730944753887221 -0.07311317995657575 2.042892356785829e-20)
(0.7741461952873179 -0.07153143150310028 -4.147956583441067e-21)
(0.7744027996920733 -0.0696846733990152 -1.649154892492314e-20)
(0.7736270114127184 -0.06753234122482034 1.23290902471616e-20)
(0.7714156788639429 -0.06500568445522303 -2.431608834045161e-20)
(0.7674095800902018 -0.06202694740294486 0)
(0.7616344981587635 -0.0585438933164998 0)
(0.7546252243978574 -0.05454362128127541 -7.363450629259784e-21)
(0.7471896664099895 -0.05003256479786614 1.398350550825282e-20)
(0.7400774302183661 -0.04501335241377762 -5.225958380073362e-20)
(0.7338114813016742 -0.03940211850245195 -4.946753591442104e-20)
(0.7285613594310869 -0.03310747251889741 -4.585538158449812e-20)
(0.7241295932955516 -0.02604309591019812 0)
(0.7204868384760686 -0.01798990489238739 0)
(0.7181994153457503 -0.008704928494643084 7.817214479060737e-21)
(0.7185243469614538 0.001889514877224704 -6.167413793302494e-21)
(0.7563343661018241 0.04949627271207871 0)
(0.7700407332707672 0.06146740109181865 -5.904313582763118e-20)
(0.7832762342507756 0.07295607157268466 -5.186633617380755e-20)
(0.795617593521688 0.08368541897505863 -4.59236688322417e-20)
(0.8069783766489168 0.09354510492064956 4.152619618521348e-20)
(0.8174421986053461 0.1025182722625818 -3.638708763502762e-20)
(0.8271354250134391 0.1106547635400652 -2.67086457147933e-22)
(0.8361742295826764 0.1180184843023985 2.253723096264999e-22)
(0.8446513903711887 0.124681834843663 -2.013456144633695e-22)
(0.8526406118227982 0.1307106904943167 -2.367086204164801e-20)
(0.03187983452012391 -0.003985318001919543 1.048434860647845e-21)
(0.09861983052003538 -0.01231424108676048 -8.078154970252307e-26)
(0.1716953909349445 -0.02142790920763306 -3.448716253821404e-21)
(0.2462218526693612 -0.03071518989259621 0)
(0.3120799122431062 -0.03891364393626174 2.679769371548185e-21)
(0.3651795480941533 -0.04551419260321966 2.172693652616975e-21)
(0.4077573377347787 -0.05079771602630509 5.046132370143241e-26)
(0.4424789913053687 -0.05509912910131233 -1.433054166915343e-24)
(0.4713610152199569 -0.05866783968308823 1.259101758960319e-24)
(0.4958854834543379 -0.06168843537897367 -4.428827394340101e-21)
(0.5171084205305744 -0.06429279244309993 1.961200211686273e-21)
(0.5357730455492904 -0.06657514512844036 -1.763774132333737e-21)
(0.5524002902754901 -0.06860217403307278 -1.604621518725255e-21)
(0.5673657214316561 -0.07041691233513714 0)
(0.580949561902193 -0.07205412775514557 -2.764801875260273e-24)
(0.5933631801310962 -0.07354134254437433 -4.996748658656379e-24)
(0.6047488801130165 -0.07489898736474897 2.357694194872061e-21)
(0.6152068103871782 -0.07613482997964462 -2.201195351282398e-21)
(0.6248142314468266 -0.07725799212710645 -2.070019302943361e-21)
(0.6336230413818345 -0.07827860730068265 0)
(0.6416708386502513 -0.07919921991924583 6.9896551201841e-24)
(0.6489914332742708 -0.08002059415790022 1.694831126973756e-21)
(0.6556107499508596 -0.08074850785852856 -1.251481158914973e-23)
(0.6615509126352094 -0.08138560346625262 1.138139536207309e-23)
(0.6668404863682161 -0.08193343920987944 2.722373419791833e-21)
(0.6715006982804044 -0.08239924213759153 0)
(0.7738295658909569 -0.07626208009078297 1.57506792532007e-20)
(0.7763535953271922 -0.07518691610832719 -3.587875150472113e-20)
(0.7781669945227825 -0.07387994849159578 -4.066177664947191e-21)
(0.7792402293364286 -0.07232746371605134 0)
(0.7794846311413917 -0.07051101567375676 -3.228377595747194e-20)
(0.7786617554414222 -0.06838992708465207 2.0043176664773e-20)
(0.7763893888332749 -0.06589957250405881 -7.794065555941261e-21)
(0.7723473949426682 -0.06296900396977745 7.589472599415096e-21)
(0.7665981478715238 -0.05955385337946399 0)
(0.7596933527006581 -0.05564507020390289 0)
(0.752431107350246 -0.05125378228771815 0)
(0.7455252964419133 -0.04637895537847263 -1.251465068137108e-20)
(0.7394487131284863 -0.04093824486021445 4.755857568992817e-20)
(0.7343090910692829 -0.03484125202231027 2.209116376006013e-20)
(0.7298740603848035 -0.02799314551559376 4.014447813923108e-20)
(0.7260684219224322 -0.02019119236721456 3.559813002804828e-20)
(0.7233377926169056 -0.01118824524431234 0)
(0.722838832438162 -0.0007720390809225278 -9.08391251205788e-21)
(0.726051660919389 0.01077773603978872 -1.862138030423588e-22)
(0.7335958379367976 0.02295162718465615 -1.109394726659594e-19)
(0.7446298880591722 0.03537210996180051 6.394269715199666e-23)
(0.7575846297580732 0.04781494617360088 0)
(0.7710852929302426 0.06001171614844503 2.131546528229348e-22)
(0.7842053733925827 0.0716523531499256 5.133868100134538e-20)
(0.7964743058134585 0.08248169515193922 3.674382255823508e-22)
(0.8077822422855422 0.09240814615306131 3.107241154087431e-22)
(0.8182012937449805 0.1014277999628406 -3.671596256542499e-20)
(0.8278525991317459 0.109598948636396 -1.550811684054652e-23)
(0.8368500547098509 0.1169907065056602 0)
(0.8452855856264396 0.1236787658554622 -2.131917164326481e-22)
(0.8532329650193486 0.129730981125033 2.376767959303668e-20)
(0.8607494960308113 0.1352098151729584 -2.09936233615588e-20)
(0.8678805467130961 0.1401690628674038 0)
(0.0321134422559233 -0.004015061758440561 5.212301285354486e-25)
(0.09937855315104956 -0.0124097007777539 -1.699214894507327e-21)
(0.1731007213427424 -0.02160446865000774 3.508840756768186e-21)
(0.2482264807947205 -0.03096709374674921 0)
(0.3144350492696271 -0.0392099718517771 1.346034591639915e-24)
(0.367719649444439 -0.04583420845152172 -2.197575018245071e-21)
(0.410410195237134 -0.05113158834167068 -3.6000170207818e-21)
(0.4452067036996346 -0.05544006071359998 1.493090772174291e-24)
(0.4741435364493484 -0.05901597887608294 1.287745654534902e-21)
(0.4987104668595048 -0.06204266641051746 0)
(0.5199686055618914 -0.06465209788895117 1.987955081813537e-21)
(0.5386658768758121 -0.06693766058417641 0)
(0.5553282280686235 -0.06896644111187759 3.248802812744749e-21)
(0.5703267201484694 -0.07078636743993556 2.707511708714828e-24)
(0.583939104744101 -0.07242827784456578 2.727101468365279e-24)
(0.5963778822916331 -0.07391845370490535 2.563050419441842e-21)
(0.6077906695375453 -0.07527646027167345 -4.610480966865449e-24)
(0.6182738455752373 -0.07651687686771025 -2.246397958894015e-21)
(0.6279015559455009 -0.07764424044259015 0)
(0.6367319406291686 -0.07866529958009906 1.963161525798505e-21)
(0.6448036449223822 -0.07958836951285551 -1.84561286757917e-21)
(0.6521459625939908 -0.08041491951380068 -1.719259752087743e-21)
(0.6587883799184742 -0.08114525093632448 -1.59288351996906e-21)
(0.6647561535755143 -0.08178494615036111 -1.182920851248477e-23)
(0.6700739107059943 -0.08233688770931122 -2.771962061339952e-21)
(0.6747702968928769 -0.0828024210826942 -2.583340860998108e-21)
(0.6788776868006303 -0.08319062053116225 2.396167469486189e-21)
(0.6824345516570627 -0.08350190992310709 2.220857899833736e-21)
(0.7753907970425195 -0.07777941821950049 0)
(0.7786752012450908 -0.07693980381677099 1.363820557783471e-20)
(0.7812631081309768 -0.07588798419167099 7.861925669165638e-21)
(0.783121435783154 -0.07460641661316668 2.774218725010427e-20)
(0.7842146331832148 -0.0730806225156185 -1.586442727401583e-20)
(0.7844402281127025 -0.07128896794563792 -1.579955147257517e-20)
(0.7835614269574086 -0.06919252787224799 2.33462085748455e-20)
(0.7812176629565738 -0.06673092492184415 7.731830928584566e-21)
(0.7771286979793959 -0.06383982262548732 -2.975569314214737e-20)