/*--------------------------------*- C++ -*----------------------------------*\
| =========                 |                                                 |
| \\      /  F ield         | OpenFOAM: The Open Source CFD Toolbox           |
|  \\    /   O peration     | Version:  2006                                  |
|   \\  /    A nd           | Website:  www.openfoam.com                      |
|    \\/     M anipulation  |                                                 |
\*---------------------------------------------------------------------------*/
FoamFile
{
    version     2.0;
    format      ascii;
    class       volVectorField;
    location    "518";
    object      wallShearStress;
}
// * * * * * * * * * * * * * * * * * * * * * * * * * * * * * * * * * * * * * //

dimensions      [0 2 -2 0 0 0 0];


internalField   uniform (0 0 0);

boundaryField
{
    airfoil
    {
        type            calculated;
        value           nonuniform List<vector> 
160
(
(-0.0003717912182030714 4.631632561578929e-05 9.768817519639888e-23)
(-0.0003696355738516425 4.60629510975943e-05 -1.477374198444639e-27)
(-0.0003675665056499711 4.582057918874244e-05 1.992067807052923e-22)
(-0.0003656151515955314 4.559357300651291e-05 3.458971368564621e-28)
(-0.00036380406007936 4.538097407287093e-05 -1.018148895521683e-22)
(-0.0003621342707537929 4.518366851757526e-05 5.15213792338723e-23)
(-0.0003605717688387514 4.500201235577781e-05 5.218067083412922e-23)
(-0.0003591040667647258 4.483065510442754e-05 5.288368812958738e-23)
(-0.0003577546139437973 4.467192884836742e-05 5.363533205738582e-23)
(-0.0003565230427378403 4.452603475534897e-05 -5.443919236789494e-23)
(-0.00035539177173131 4.439459950442821e-05 1.713925839097013e-27)
(-0.0003543484876966634 4.427364798383342e-05 4.987658439652893e-39)
(-0.0003534089494640636 4.416385349242591e-05 -2.621928725306242e-45)
(-0.0003525768061283157 4.406605349202581e-05 -4.344025239406933e-44)
(-0.0003518516339252317 4.398058970763742e-05 1.784432296233504e-27)
(-0.0003512144994649078 4.390799821812143e-05 -1.871766155951627e-27)
(-0.0003506589802254828 4.384505946972945e-05 1.858725431170997e-27)
(-0.0003502022498152152 4.379333243016765e-05 -3.153357251779363e-23)
(-0.0003498447354385888 4.375296351907086e-05 -5.013810888092653e-29)
(-0.0003495878189734325 4.372418340585802e-05 3.299067528728204e-23)
(-0.000349433713178272 4.370767653966027e-05 2.038233676145351e-27)
(-0.0003493697830150798 4.370403168823126e-05 -4.8478456627641e-29)
(-0.0003493929872028604 4.371107983098097e-05 -1.778230337044054e-23)
(-0.0003495175522326914 4.373007143654484e-05 4.458777165100115e-27)
(-0.0003497464403063916 4.37614544439984e-05 1.877459500756644e-23)
(-0.0003500827433975873 4.380564642017783e-05 -1.932405443900233e-23)
(-0.0003505305849015987 4.386324995467529e-05 -2.453161556329637e-27)
(-0.0003510942149511744 4.393482978000942e-05 -1.0268639297069e-23)
(-0.0003517798301799857 4.402147950381881e-05 2.567694416231749e-27)
(-0.0003525793181782692 4.412415052764115e-05 -1.096120421264125e-23)
(-0.0003534942642723583 4.42411763166688e-05 1.13390551128274e-23)
(-0.0003545438316807005 4.4374532922952e-05 1.174555493035062e-23)
(-0.0003557365680811452 4.452521654821928e-05 -2.956221408182657e-27)
(-0.000357081173721169 4.469446000876751e-05 3.391241558565487e-29)
(-0.0003585872436476898 4.488348939716059e-05 6.57478141523403e-24)
(-0.000360264812537153 4.509362594896058e-05 -6.838145576276288e-24)
(-0.0003621249099222967 4.53263621558272e-05 -3.465903698013088e-27)
(-0.0003641796308988811 4.558323455070941e-05 3.701458508662676e-29)
(-0.0003664427255337205 4.586611206369848e-05 3.799430763284614e-27)
(-0.0003689272424709287 4.617663081997487e-05 8.111585387133897e-24)
(-0.0003716453024970187 4.651647853168721e-05 1.434929627468613e-42)
(-0.0003746424590062732 4.688670417160932e-05 -4.453204716093014e-24)
(-0.0003779530507140864 4.729576528928058e-05 9.119818426441773e-27)
(-0.0003815689009885725 4.774560246795648e-05 -4.913401259047715e-24)
(-0.0003855016777931497 4.823735338272778e-05 5.162882981208516e-24)
(-0.0003897814397716637 4.877460921184145e-05 -7.605127025583647e-41)
(-0.0003944401551998914 4.936121306693059e-05 1.145321988586506e-23)
(-0.0003995129795583262 5.000173642729088e-05 -6.044854997055144e-24)
(-0.0004050391119928814 5.070127907680999e-05 6.262361254446117e-27)
(-0.0004110618533526651 5.146562175237755e-05 -3.386333480396267e-24)
(-0.0004176304689884548 5.230141623225811e-05 -4.52002832652613e-41)
(-0.0004248009667046644 5.32162774792984e-05 -3.074336726851503e-40)
(-0.0004326354623088537 5.42188186695142e-05 -4.620473400448933e-40)
(-0.0004412061483226732 5.531908587247186e-05 -4.28543945190155e-24)
(-0.0004505963819485137 5.652897862949055e-05 -4.560548941711757e-24)
(-0.0004609023426019834 5.786220839091896e-05 0)
(-0.0004722370493266635 5.933536372728728e-05 -2.869859254937225e-42)
(-0.0004847338565431741 6.096819847913554e-05 -5.533477420687784e-24)
(-0.0004985523920703692 6.278478584224571e-05 2.957404009353618e-24)
(-0.0005138854253099344 6.481472693275201e-05 -3.661993738364329e-28)
(-0.0005309694070908807 6.709476665170043e-05 -1.341006842204075e-26)
(-0.0005500982603944528 6.967120680789904e-05 -3.60813352823142e-24)
(-0.0005716445382934136 7.260315074022064e-05 1.936614485310288e-24)
(-0.0005960920723856048 7.596760634317375e-05 0)
(-0.0006240807992035434 7.986693010491768e-05 -2.255920232890334e-24)
(-0.0006564959434166311 8.444391882796383e-05 3.866476883615589e-26)
(-0.0006945702053962623 8.990547274928316e-05 2.579196664008783e-24)
(-0.0007402254447817301 9.659234679188579e-05 2.874088842908531e-24)
(-0.000796158071320994 0.0001050941518920851 -4.691663052891958e-26)
(-0.0008686348369791573 0.0001169292735856572 3.340429368229277e-24)
(-0.000962658735456154 0.000135244362250193 -1.844783830777602e-24)
(-0.001144640264951392 0.0001837977052671012 -1.291436664721751e-41)
(-0.001195389979990296 0.0002889946873579095 -1.508627321671261e-25)
(-0.0007074713351849498 0.0002789017802005327 1.039692856922065e-23)
(-5.500524485290085e-05 -2.797628312106062e-06 9.721340861625826e-24)
(0.0001379810993965812 -0.0001681491479560514 0)
(5.659592067218402e-05 -0.0001062865455442275 -1.778385499462543e-23)
(3.815204391074563e-05 -0.0002907663686676482 4.492690853085959e-24)
(-5.844029603853039e-06 -0.0004633534575463758 3.181005879198503e-26)
(6.140171978840796e-05 -2.054437499458316e-05 3.938312586695264e-24)
(0.0002690161565889802 0.0004927071033250064 8.211622254890307e-24)
(0.0003576352208228315 0.0004436541631966587 -1.823203957472532e-23)
(0.0006370583233280793 0.0004360800655206176 -1.553548831391997e-25)
(0.0007601141629285282 0.0003880343728427132 -5.128936593753024e-26)
(-0.001065738992729639 -1.909907358948386e-05 7.181312391994632e-24)
(-0.002940799457676745 0.0001136820642769286 -7.712746747643793e-42)
(-0.003192098901644703 0.0003091894599919118 2.419210206531003e-24)
(-0.00281003176912516 0.0003260069877860776 1.973182671550143e-24)
(-0.002668859396600873 0.0003216352798128637 -9.715934087770119e-26)
(-0.002553270032569155 0.0003123140986185557 1.122349237955078e-26)
(-0.002467813969986704 0.0003039303820988344 7.695803167672798e-26)
(-0.002396802055177941 0.0002963387895936043 -2.582873329443503e-41)
(-0.002336652367957682 0.0002897103143869859 -5.029964523139553e-26)
(-0.002284308179758252 0.000283849351701346 6.939913817407161e-27)
(-0.002238028598818054 0.0002785978190378565 6.370921311737877e-27)
(-0.002196601563756236 0.0002738524556925254 3.480717637760004e-26)
(-0.002159247484858439 0.0002695341317283316 7.174648137343063e-43)
(-0.002125270011948131 0.0002655591125304865 1.086821371943858e-24)
(-0.002094053112763827 0.0002618605201177167 1.472869338767672e-24)
(-0.002065153634412458 0.0002584045114396745 -4.182878567936889e-25)
(-0.002038293321912681 0.0002551713316237379 1.316889677512935e-25)
(-0.002013263241269666 0.0002521413894145493 1.748820483477372e-42)
(-0.001989883212882543 0.000249291413768788 0)
(-0.001968009995302009 0.0002466102836483108 0)
(-0.001947464730268114 0.000244081575385974 -1.4941944608969e-24)
(-0.001928125421496413 0.0002416912255030614 -1.853392867832382e-24)
(-0.001909861026229598 0.000239424764608361 -2.136806150663874e-24)
(-0.001892578714757819 0.0002372736548755567 -2.009937700597978e-26)
(-0.001876196668870622 0.0002352278372328493 1.918170983438898e-26)
(-0.001860617775596366 0.0002332755529465861 -1.16816573217721e-26)
(-0.001845767785304066 0.0002314087231419247 1.114260751320365e-26)
(-0.001831581591095246 0.0002296189428165012 6.328381172247186e-24)
(-0.001817991101427468 0.0002278976044808859 -6.592189065988089e-24)
(-0.001804938028074236 0.0002262363548847188 -6.816009644911382e-24)
(-0.001792342868795841 0.0002246226927402814 4.999378473511585e-28)
(-0.001780130331224881 0.0002230447045544095 1.277984199464233e-42)
(-0.001768427232618986 0.0002215173782363934 -2.933027662702671e-26)
(-0.001757476209188529 0.0002200993025090781 -1.473163117740148e-23)
(-0.001747061728860588 0.0002187899429448823 0)
(-0.001736885046031093 0.0002175093561520245 1.501110999355483e-23)
(-0.001726961121680896 0.000216259378450496 -1.507826174567204e-23)
(-0.001717282657375209 0.0002150389960539338 -1.511352855818184e-26)
(-0.001707832607608363 0.0002138457428052874 1.512485947976865e-23)
(-0.001698590596394343 0.0002126768668629179 0)
(-0.001689528434917282 0.0002115285173495107 3.006132411425672e-23)
(-0.001680612143394538 0.0002103960157538055 -2.991028986689336e-23)
(-0.001671776225674388 0.000209270588070556 0)
(-0.001662921613649844 0.0002081396299499713 -5.168980307067369e-28)
(-0.001653986771647262 0.0002069970281277289 -2.922680353313095e-23)
(-0.001645119053926255 0.0002058647005982617 -1.439091192012172e-26)
(-0.001636404394932284 0.0002047603692961627 1.371038499690749e-26)
(-0.001627768609890169 0.0002036652097872272 -1.131081552343945e-22)
(-0.001619208478127473 0.000202577567186523 5.583543833181748e-23)
(-0.001610717176437992 0.0002014964384299602 5.510524338052602e-23)
(-0.001602289217002441 0.0002004207969620732 -1.348551485714498e-26)
(-0.001593912527306229 0.000199349061356257 1.071025268842996e-22)
(-0.001585591281560815 0.0001982815145477859 -2.573551388597617e-26)
(-0.001577375518157232 0.0001972274714065254 -5.187530129346666e-23)
(-0.001569232190613098 0.0001961898505799709 -1.190326107805801e-26)
(-0.001561100183963008 0.0001951512011655953 1.206063383703473e-26)
(-0.001552976364153544 0.000194109927279595 -9.865679926050919e-23)
(-0.001544859002561353 0.0001930652442033299 -9.692656116199302e-23)
(-0.001536754847736741 0.0001920179583974677 9.518930833162918e-23)
(-0.001528724533008161 0.0001909792120595756 -5.739718509874451e-42)
(-0.001520735156259493 0.0001899536622175558 9.231305867463311e-40)
(-0.001512713492583974 0.0001889201593363828 -6.227594583213779e-39)
(-0.001504658367711539 0.0001878764804949998 -1.765520809528925e-22)
(-0.001496591984873317 0.0001868254267622012 1.041862568944191e-26)
(-0.001488583394022733 0.0001857817819775344 -1.049938534708886e-26)
(-0.001480579830894699 0.0001847459935951148 2.030731445183052e-26)
(-0.001472506224088572 0.0001836944546259995 -3.261814670382103e-22)
(-0.001464382792699371 0.0001826288922063013 -9.881415130998581e-27)
(-0.001456300877189687 0.0001815658307229088 -1.565783138859069e-22)
(-0.001448213377128647 0.0001805104520338848 9.48347875189966e-27)
(-0.001440020133477682 0.0001794334999955651 3.005783844678339e-22)
(-0.001431803962514793 0.0001783440144321503 -2.944338763614376e-22)
(-0.001423599175160438 0.0001772612892594386 2.883844137574586e-22)
(-0.001415292823177384 0.0001761652177375528 8.510791524416387e-27)
(-0.00140687520760859 0.0001750434064154979 -2.766799119423992e-22)
(-0.001398392166049702 0.0001739135452427487 2.709866128787332e-22)
)
;
    }
    farfield
    {
        type            calculated;
        value           uniform (0 0 0);
    }
    side
    {
        type            empty;
    }
    procBoundary1to0
    {
        type            processor;
        value           uniform (0 0 0);
    }
    procBoundary1to3
    {
        type            processor;
        value           uniform (0 0 0);
    }
}


// ************************************************************************* //
