/*--------------------------------*- C++ -*----------------------------------*\
| =========                 |                                                 |
| \\      /  F ield         | OpenFOAM: The Open Source CFD Toolbox           |
|  \\    /   O peration     | Version:  2006                                  |
|   \\  /    A nd           | Website:  www.openfoam.com                      |
|    \\/     M anipulation  |                                                 |
\*---------------------------------------------------------------------------*/
FoamFile
{
    version     2.0;
    format      ascii;
    class       volScalarField;
    location    "1";
    object      yPlus;
}
// * * * * * * * * * * * * * * * * * * * * * * * * * * * * * * * * * * * * * //

dimensions      [0 0 0 0 0 0 0];


internalField   uniform 0;

boundaryField
{
    airfoil
    {
        type            calculated;
        value           nonuniform List<scalar> 
570
(
0.2732501927841563
0.2764002532310968
0.2773707419969573
0.2785616004470212
0.2801874689826796
0.2824665276702207
0.2857490322991248
0.2906348747784404
0.2981857764812871
0.3100806817094755
0.327760043079246
0.3477606402096531
0.35697307354173
0.346350689296515
0.3252418750201733
0.3051100821099669
0.279879247231194
0.2560951144132474
0.25036952777105
0.2510799600571462
0.2503103473537235
0.2506117499110535
0.2506165657359563
0.2506185173690369
0.250616923054114
0.2506154076834744
0.2506171960572309
0.2506184755763097
0.2506163791521378
0.2506155263327555
0.2506177255879258
0.2506182517888912
0.2506159182061375
0.2506157990485357
0.2506181633140243
0.2506178611628195
0.2506155917398429
0.2506162327783198
0.25061843325201
0.2506173529582348
0.2506154247805086
0.250616765399816
0.2506185239346098
0.2506167969415232
0.250615419274942
0.2506173236020226
0.2506184410138646
0.2506162628471807
0.2506155759217098
0.2506178367728351
0.2506181801745983
0.2506158230652393
0.2506158923737651
0.2506182360498682
0.2506177538841712
0.2506155372099072
0.2506163503589821
0.2506184683842395
0.2506172263336505
0.2506154105300398
0.2506168920059726
0.2506185222324047
0.2506166687943619
0.2506154429101779
0.250617445557826
0.2506183971793048
0.2506161517738174
0.2506156337969032
0.2506179408556942
0.2506180963079168
0.2506157427899317
0.2506159868468291
0.2506183043539809
0.2506176387198787
0.2506154952042886
0.2506164685109696
0.2506184962698825
0.2506171001040637
0.2506154030146496
0.2506170202957449
0.2506185091362028
0.250616545096967
0.2506154717006581
0.250617566987719
0.2506183440906123
0.2506160477030119
0.2506157063674243
0.2506180292523337
0.2506180103028108
0.2506156681217409
0.2506160838924303
0.2506183652324586
0.2506175207260313
0.2506154603495231
0.2506165909277966
0.2506185157301152
0.2506169710470157
0.250615405479757
0.2506171476767125
0.2506184867378882
0.2506164239634029
0.2506155094787524
0.2506176842156687
0.2506182818765625
0.2506159464959793
0.2506157759989334
0.2506181265429046
0.2506179017891922
0.2506156108409001
0.2506161931113568
0.2506184147264266
0.2506173994768839
0.2506154330432607
0.2506167168022863
0.250618524479814
0.2506168440042406
0.250615414627201
0.2506172746988127
0.2506184548527298
0.250616306675578
0.2506155491683772
0.250617591623452
0.2505796719394813
0.251726118880551
0.2545040828564678
0.2558621312898773
0.2560837146676858
0.2563391590119437
0.2565904138270155
0.2568348632935944
0.2570731217647851
0.2573048608779091
0.2575284123462189
0.2577430083556719
0.2579492612270137
0.2581471321074923
0.2583368566971788
0.2585183354903742
0.2586913222978603
0.2588562168550222
0.2590134457850601
0.2591632784297708
0.2593060002902103
0.2594419080501763
0.2595713038356073
0.2596944906208361
0.2598117686053354
0.2599234324411485
0.2600297691361469
0.2601310565164605
0.2602275621479241
0.2603195426438732
0.260407243238308
0.2604908976162054
0.2605707279221854
0.2606469448858649
0.2607197478184139
0.2607893096861715
0.2608549538758823
0.2608556558314019
0.2607764721334987
0.2607295654029436
0.2606108336422684
0.260439925213058
0.2602767866459975
0.2601219744612415
0.2599752525269415
0.2598364769749662
0.2597056045053815
0.2595821277085389
0.2594655603981476
0.2593558034322859
0.2592534349847596
0.2591576836519823
0.2590674740295297
0.258984129083945
0.2589064034039493
0.2588343661561999
0.2587677994735412
0.2587064724529629
0.2586502481567213
0.2585984916346928
0.2585519204593785
0.2585093313568892
0.2584707552126781
0.2584364483414249
0.2584011315169715
0.2583907144614925
0.2582005158071935
0.2581788367854929
0.2583957632975876
0.2586047009603747
0.2588541230494211
0.2590227437603494
0.2591590686093616
0.2592715502417866
0.2593626297156241
0.2594370884827807
0.2595011122126346
0.2595563092360636
0.2596022415125178
0.2596410392796326
0.2596757488580944
0.2597071975774611
0.2597341029439906
0.2597571177658602
0.2597784073968073
0.2597989430575487
0.259817170307614
0.2598327737740423
0.2598476298077326
0.2598630151207058
0.2598773384611263
0.2598895895986667
0.2599014017927137
0.2599144902679037
0.259927501259592
0.2599386896928916
0.2599493054793189
0.2599612351553501
0.2599745674120015
0.2599866925508683
0.2599975178218476
0.2600080458943543
0.2600212083544906
0.2600363444562929
0.2600497782373253
0.2600621239299259
0.2600756955531768
0.2600909852067009
0.260105521150474
0.2601200413164504
0.2601363081495175
0.2601534820431391
0.2601710731781962
0.2601892592303425
0.2602081526215745
0.2602278342725156
0.2602483700017887
0.2602698183371491
0.2602922344431373
0.2603156722158985
0.2603401854843506
0.260365828755756
0.2603926577149581
0.2604207296149185
0.2604501035694382
0.2604808408599238
0.2605130055800982
0.2605467702975762
0.2605824454538206
0.2606197593366256
0.2606585163312249
0.2606990465068884
0.2607416345664622
0.2607869348654023
0.2608342890811646
0.2608831227296316
0.2609347752379033
0.2609897112083465
0.2610465827468818
0.2611059709928431
0.2611693815794185
0.2612350367673627
0.2613041340489179
0.2613772373251622
0.2614529313909967
0.2615333994026447
0.2616172777800855
0.2617056319596562
0.2617983090842481
0.2618956149437561
0.2619978473599888
0.2621051197297529
0.2622179260311467
0.2623360810587366
0.2624607538719035
0.2625907733517188
0.2627285898838758
0.2628721814068748
0.2630234033303465
0.2631828557870113
0.2633489290417796
0.2635249336213869
0.2637092325605233
0.263901770351446
0.2641057837508641
0.2643196278697291
0.2645428931038544
0.2647786431977138
0.2650272443523791
0.2652866624128458
0.2655589284441963
0.2658465941924449
0.2661489658194599
0.2664651861542878
0.2667969821147365
0.2671469268127654
0.2675149795288973
0.2679013837375033
0.2683061186359365
0.2687312294634118
0.2691790704210892
0.2696498070293938
0.2701443136437455
0.2706636572693581
0.2712083630493869
0.2717805726608412
0.2723827398320804
0.2730156323740024
0.2736805503516649
0.2743791524187896
0.2751131310984187
0.2758840936389284
0.2766933120745769
0.2775436191728229
0.2784380262827136
0.2793780477808342
0.2803657259977981
0.2814034540792366
0.2824938456358691
0.283639538839964
0.2848433350602521
0.2861081874035561
0.2874373749052861
0.2888342427021174
0.2903038514454208
0.2918481688117029
0.2934679859544713
0.2951691001924219
0.2969572873230893
0.2988368956725668
0.3008124943877469
0.3028889446477545
0.3050714302093073
0.3073652756281723
0.3097762985964572
0.3123106930398059
0.3149747665687919
0.3177752157549009
0.3207193286870839
0.3238146471121741
0.3270691521825176
0.3304912244120216
0.334089545012608
0.3378727335299252
0.3418484938580069
0.3460211425059634
0.3503865264963792
0.3549204525919056
0.3595544403542518
0.3641279708976028
0.3682986476405688
0.3713801085514938
0.3720688510792687
0.3679742642055924
0.355183218649232
0.3250338226599754
0.2866513504759715
0.2629670534749469
0.2521926980579652
0.2461650556733921
0.2429861911288081
0.2413801786200794
0.2407085068659667
0.2407058605923532
0.24137632703369
0.2429903006376362
0.2461632493038918
0.2521811790023107
0.2629601161931118
0.2866400954836265
0.3250130947820966
0.3551603084546595
0.3679486110899668
0.3720357635768825
0.3713379371712693
0.3682471242783116
0.3640675993127878
0.3594861945086154
0.3548454493469116
0.3503056047285328
0.3459350810040162
0.3417581242992507
0.3377787393334953
0.3339924686849756
0.3303916132457472
0.3269674976346064
0.3237113876731341
0.3206148629330385
0.317669917496621
0.3148689728307599
0.3122047111596063
0.3096704137625066
0.3072597493235271
0.3049665054376431
0.3027848566642458
0.3007094716616989
0.2987351682336223
0.2968571114964869
0.2950707783918001
0.293371694418378
0.2917527601523774
0.2902074144171449
0.288737791908618
0.2873427765938455
0.2860157924437318
0.2847532519769349
0.2835519193534922
0.2824087946804147
0.2813210336796473
0.2802860145016831
0.2793011623987376
0.2783639825573933
0.2774719420119379
0.276622134800008
0.2758134488060703
0.2750447719927006
0.2743135030249553
0.2736176195281267
0.2729554338865592
0.2723253885320912
0.2717256243876306
0.2711539542305528
0.2706101377682134
0.270093604285865
0.2696022049566008
0.2691346735278559
0.2686895670573523
0.2682648645287048
0.2678609840977192
0.2674778581184273
0.2671135058532368
0.2667663297784623
0.2664347954562213
0.2661199032532469
0.2658216174768018
0.2655374928600853
0.2652656785244903
0.2650075399293569
0.2647635735328024
0.2645302619107463
0.2643074417536722
0.2640970307434036
0.2638968197085086
0.2637049417216213
0.263523760685604
0.2633514242111694
0.2631863695193817
0.2630309495982467
0.2628821392053046
0.2627406912478114
0.2626069564369359
0.2624788287086681
0.2623579889149538
0.2622424086426743
0.2621330168246703
0.2620288469660854
0.261929995716625
0.2618361037181299
0.2617468213166034
0.261662370791633
0.2615816097969545
0.2615057768616856
0.2614329590245355
0.2613645321064501
0.2612997399904656
0.2612373928369646
0.2611794984267431
0.2611242633422307
0.2610712397372197
0.2610221629179004
0.2609756796051912
0.2609309440492964
0.2608889772340076
0.2608500347517633
0.2608131955635196
0.2607780554814571
0.2607450752018088
0.260714189316529
0.2606854264785275
0.2606586684747073
0.260633557080184
0.2606100534212173
0.2605882513764016
0.2605680885930622
0.260549507577368
0.2605324561794373
0.2605168879323486
0.2605027624636945
0.2604900462372529
0.2604787139020823
0.2604687506976316
0.2604601568802982
0.2604529557071671
0.2604470475612939
0.2604418464377189
0.2604376760318725
0.2604351363734259
0.2604343654748991
0.2604360975730923
0.2604375357082482
0.2604376690887943
0.2604432576910325
0.2604506134386508
0.2604552764275996
0.2604616370443736
0.2604718582141592
0.2604846094933688
0.2604967092547323
0.2605092384506328
0.2605244221384073
0.2605430127898338
0.2605625599390579
0.2605823502936418
0.2606049041735831
0.260631210265665
0.2606592024931624
0.2606881631789073
0.2607206939832315
0.260757597646366
0.2607969684074847
0.2608386050779375
0.2608854766218737
0.2609379834843681
0.2609944118203555
0.2610556090307714
0.2611251620606504
0.2612031623816308
0.2612884411151379
0.2613840465118465
0.2614947031993452
0.2616206790659498
0.2617632092004972
0.2619319860255002
0.2621325791986165
0.2623697417767762
0.2626914717021823
0.262994824653109
0.2632933534702022
0.2633527456774706
0.2632517689317622
0.2633200789602998
0.2633801262956066
0.2634425630096541
0.2635061333573672
0.2635706605745135
0.2636359787904012
0.2637026814484243
0.2637707342407389
0.2638393920924744
0.2639097284100096
0.2639811390450831
0.2640539925077326
0.2641283459396452
0.2642041469342435
0.2642821395743941
0.2643611695271082
0.2644429187786688
0.2645271604209318
0.2646132254085857
0.2647020799080188
0.2647941454752036
0.2648897067106502
0.2649888452574106
0.2650919115939719
0.2652097177466214
0.265257604585056
0.2654787738396127
0.2680401802674571
)
;
    }
    farfield
    {
        type            calculated;
        value           uniform 0;
    }
    side
    {
        type            empty;
    }
}


// ************************************************************************* //
