/*--------------------------------*- C++ -*----------------------------------*\
| =========                 |                                                 |
| \\      /  F ield         | OpenFOAM: The Open Source CFD Toolbox           |
|  \\    /   O peration     | Version:  2006                                  |
|   \\  /    A nd           | Website:  www.openfoam.com                      |
|    \\/     M anipulation  |                                                 |
\*---------------------------------------------------------------------------*/
FoamFile
{
    version     2.0;
    format      ascii;
    class       volScalarField;
    location    "518";
    object      k;
}
// * * * * * * * * * * * * * * * * * * * * * * * * * * * * * * * * * * * * * //

dimensions      [0 2 -2 0 0 0 0];


internalField   nonuniform List<scalar> 
28642
(
7.357818376156259e-08
7.88550589341745e-08
2.046084064192678e-08
5.836660895253773e-08
2.087296258691854e-08
8.452832657522492e-08
3.721723605087896e-08
1.712491126572317e-08
7.562291590217928e-08
3.551133496732448e-07
2.886544004643485e-08
1.33189029491192e-08
7.111022326805482e-08
2.988178256856195e-07
1.098753805540542e-06
3.194990714483216e-08
1.311050450337902e-08
6.426802921448951e-08
2.826938623482748e-07
8.812097969885175e-07
2.782550895301482e-06
5.238597296948703e-08
2.317086075149775e-08
7.14177925771908e-08
2.579767116920912e-07
8.272723021384214e-07
2.141546021692277e-06
6.141284664192156e-06
8.385911614431231e-08
7.664026163722861e-08
1.464262060940114e-07
2.876342098646864e-07
7.556237269655418e-07
1.989956158690188e-06
4.567123084534709e-06
1.219592806946888e-05
1.190090994745499e-07
2.119662139340377e-07
5.41771688143574e-07
5.920279459309253e-07
8.404047641520296e-07
1.817379096079922e-06
4.199725046160366e-06
8.844184975286053e-06
2.208293303123449e-05
1.558742686354628e-07
4.309714829249263e-07
1.566717194211388e-06
2.198958387016174e-06
1.724438512273092e-06
2.01541047527416e-06
3.834737206647527e-06
8.05922077539175e-06
1.582245083164246e-05
3.654873828710872e-05
1.979230011211374e-07
7.292360640413617e-07
3.244383933395206e-06
6.376839305928623e-06
6.399053935501995e-06
4.116019572767988e-06
4.240471619909796e-06
7.361326188990145e-06
1.433132109330331e-05
2.632615341325491e-05
5.533524275413497e-05
2.502366985887339e-07
1.108744980017194e-06
5.542250911145851e-06
1.322085500493183e-05
1.856083450758986e-05
1.522377222337302e-05
8.604347594250423e-06
8.119038482838875e-06
1.311136511433692e-05
2.381383486720163e-05
4.078047914580809e-05
7.720549066844899e-05
3.17155128431878e-07
1.560538613075532e-06
8.472752435892228e-06
2.259149447095459e-05
3.84317410357179e-05
4.398509441465805e-05
3.156339556995349e-05
1.632185476644298e-05
1.442958429887885e-05
2.186538560107041e-05
3.704840456336463e-05
5.887620662558746e-05
0.0001007577921419895
4.055506667659089e-07
2.046989383177473e-06
1.19605625563765e-05
3.45318311764654e-05
6.549893220818311e-05
9.03862897381353e-05
8.990580366460532e-05
5.87707960290276e-05
2.860487518724987e-05
2.402409302577809e-05
3.422140955544664e-05
5.397081598973584e-05
7.96835610152082e-05
0.0001250663059051469
5.185489320189035e-07
2.532917648212043e-06
1.570793870806746e-05
4.872312542171134e-05
9.975081061084892e-05
0.0001524059143693283
0.0001807584917218707
0.0001618729125611669
9.934521535234193e-05
4.663524426023449e-05
3.755274001135112e-05
5.025214977769005e-05
7.384045502658587e-05
0.0001022002140689367
0.0001496936588559069
6.579590894842211e-07
2.953485671713186e-06
1.942927160203762e-05
6.395310803186789e-05
0.0001401051303439075
0.0002290663456846806
0.0002968486212547113
0.0003120031266563216
0.0002583803659120725
0.0001528788856802115
7.079911232597491e-05
5.507827521496992e-05
6.935601982780914e-05
9.564419437608894e-05
0.000125761532876567
0.0001744850407708121
8.178727028035521e-07
3.257883122080021e-06
2.261477318467441e-05
7.904171331027813e-05
0.0001830142213463525
0.0003169728258711999
0.0004335899361919144
0.0004913184253306548
0.0004710429778115943
0.0003700262286199146
0.0002155152920657262
0.0001002288412713527
7.591063431419357e-05
9.055396074384268e-05
0.0001186123626966815
0.0001500378504281895
0.0001994295567820417
9.89225156823475e-07
3.393676821785395e-06
2.486185206313289e-05
9.193732225661584e-05
0.00022505243134696
0.0004078983130351593
0.0005831238108723163
0.0006907422560704828
0.0007093758152297591
0.0006393493224353223
0.000486283910306091
0.0002822778345511584
0.0001331738253990586
9.894621771774124e-05
0.0001130066112692375
0.0001423762752604407
0.0001748765773396197
0.000224591290194647
1.145692234208161e-06
3.354507182637219e-06
2.576787316881101e-05
0.0001010128523578565
0.0002606117417817694
0.0004944632322138137
0.000731429086056292
0.0008990306812843338
0.0009633249560344913
0.0009284419387073092
0.0008050693396408119
0.0006007462157659419
0.0003495330187086931
0.0001679259701057944
0.0001232360156213827
0.0001362805171504489
0.0001668103034979757
0.0002002097754985595
0.0002500768130629294
1.255220234273798e-06
3.119630193204821e-06
2.528560942419811e-05
0.0001046767511200386
0.0002853453212090794
0.0005658048006868313
0.0008674251210110456
0.001098669393668973
0.001220961957979351
0.00122887688488538
0.001138691501865086
0.0009637662015953207
0.0007109000366466038
0.0004154571315475219
0.0002033807008446972
0.0001482673576431885
0.0001602594474145352
0.0001918645148321873
0.0002260265165906138
0.000276017836517101
1.277942327444618e-06
2.711726673175647e-06
2.328540937039521e-05
0.0001027123369180002
0.0002951731191677101
0.0006140793662035631
0.0009760831366255021
0.001276855499732461
0.001463228218675416
0.00152889328322326
0.001480562707339515
0.001338071755778022
0.001114765674893794
0.0008162524875642434
0.0004794112407986029
0.0002390151768303505
0.0001738812629353266
0.0001849468743669863
0.0002175076067956416
0.0002523612531134612
0.0003025627527201107
1.187934533004665e-06
2.164727336939427e-06
1.997538438273784e-05
9.463753964315917e-05
0.0002895248112127836
0.0006323260841809645
0.001047309391956292
0.001416338585403865
0.001676349092185268
0.001808291253480113
0.001818940291928502
0.001718387939716194
0.001527340821620849
0.001258681839282413
0.000917069398959402
0.000541323671953748
0.0002746569328642425
0.0002000812424136976
0.0002103517935005579
0.00024372927121617
0.0002792817063292712
0.0003298755919117619
9.774674418397967e-07
1.549628659197824e-06
1.566563787643109e-05
8.12631583032015e-05
0.0002672547019209982
0.000619738652666632
0.001072412560741903
0.001505805271908528
0.001841501058504694
0.002052265765822223
0.002132469134206571
0.002092772143467969
0.001944190447430558
0.001707863950980303
0.001396378051091913
0.001013806046186517
0.0006013401214055565
0.0003102493322044202
0.0002269095588129051
0.0002364681608576923
0.0002705476009130911
0.0003068773023906796
0.0003581405454697221
6.529946272579691e-07
9.650921918299185e-07
1.093491542085774e-05
6.383666706546594e-05
0.0002303874429471523
0.0005744427646040971
0.001050565782916287
0.001535551916555667
0.001946268276054854
0.002240530532147558
0.00240520732700151
0.002438716466324452
0.002353061573664214
0.002159885619619284
0.001880894578028708
0.001528624181450229
0.00110689806563057
0.0006596653126227336
0.0003458515661650459
0.0002544052855951607
0.0002632901518379316
0.0002980083564627206
0.0003352490318384196
0.0003875478918976508
2.891893926497841e-07
5.128493042365312e-07
6.567119203416059e-06
4.464308889864208e-05
0.0001821414124703879
0.0004997174630008523
0.0009793659232208624
0.001504482945025891
0.001980033690400646
0.002359510456302132
0.002615468534985599
0.002739113323045426
0.002730348656668669
0.002602152252138483
0.002367012675311674
0.002047405272070613
0.00165601599916876
0.001196701521760164
0.0007165020449212842
0.0003815560272525733
0.0002826025471136927
0.0002908272605170127
0.0003261800537650033
0.0003644982084489085
8.337540824916521e-08
2.321540798498003e-07
3.353847755200454e-06
2.687005714404338e-05
0.0001283963236109223
0.0004009336866329163
0.0008625601570201408
0.001409781796553736
0.00194112354626071
0.002397661818646351
0.002748495030230078
0.002970955678454426
0.003057797315774291
0.003010043697606636
0.002841806474551513
0.002566688900821598
0.002208090005766045
0.001778980385104223
0.001283487778125339
0.0007720327421383383
0.0004174611183526741
0.0003115393789393943
0.0003191114412497758
0.0003551496956987906
0.0003947437835808231
2.929209566965857e-08
9.957238206693654e-08
1.530387038725741e-06
1.374673049843221e-05
7.800464073679542e-05
0.0002881558574447528
0.000706480565577231
0.001255108257743192
0.001826321605472976
0.002352551778824728
0.002791800230121232
0.003118307355386107
0.003311169269001614
0.003364202677372247
0.003279737517901542
0.003073248546095489
0.002759668248299638
0.002363409297513125
0.001897803435427402
0.001367456176123762
0.0008264114633179341
0.0004536686798444842
0.0003412666614595082
0.0003481996890454089
0.0003850212983057861
0.0004255321421639186
1.389225480865476e-08
7.752140414265902e-08
6.994069905317663e-07
6.29210488347686e-06
4.025976844450342e-05
0.0001791111957501388
0.0005230405022834374
0.001047096622564627
0.00163896869081656
0.002220552220043892
0.002742074446127961
0.003167717407671861
0.003473364829825537
0.003639251692434437
0.003660401633948642
0.003540728888426243
0.003297263163205942
0.002946413853397864
0.002513638792974953
0.002012661005357755
0.001448750984537729
0.0008797369788578598
0.0004902885386484241
0.0003718562794328742
0.0003781758347086944
0.0004153653275412583
0.00045703048944625
7.195389738654362e-09
1.033905876476138e-07
5.748843835940992e-07
2.879008408035005e-06
1.856694780198853e-05
9.453810887792955e-05
0.000337801461322054
0.0007978001022739973
0.001385857158105644
0.002004598506156814
0.002595242618817539
0.003114901531962509
0.003529941871314286
0.003816948719687157
0.003957376955287089
0.003947744877089699
0.003793807888428914
0.003514288473439237
0.003127161094090126
0.002658911282102543
0.002123645924558875
0.001527478423092085
0.0009321461868864222
0.0005274477216982665
0.0004034098386990452
0.0004087372312568908
0.0004463059590731043
0.0004897468440842334
5.849619846127158e-09
1.394832998058908e-07
7.921740960395541e-07
2.340032335007185e-06
8.510508503254744e-06
4.444752627812887e-05
0.0001859196856230768
0.0005370711583477212
0.0010790151917848
0.001711593759650194
0.00235379436678004
0.002955272895421103
0.003475546066579807
0.003881829693776176
0.004151306230466172
0.004266928184174235
0.004227009858199549
0.004039362598487442
0.003724489680722284
0.003301968226110428
0.002799250959385772
0.002230791124554564
0.001603696231330101
0.0009837841893962629
0.0005653039134401385
0.0004358699170510342
0.0004399275033109692
0.0004783222011238673
0.000523830788749215
8.891609106691761e-09
1.866620368382357e-07
1.082401631765917e-06
3.222449896477264e-06
6.82280898182819e-06
2.056555921070246e-05
9.092277284055683e-05
0.0003116947282179383
0.0007507446915131252
0.001353645715411728
0.002024740491201875
0.00269083671919729
0.003304991842527881
0.003827378793956279
0.004225675352995123
0.004477842286243643
0.004568658493773964
0.00449851867838238
0.004277462399353557
0.00392781706821192
0.003470756277906178
0.002934601255969036
0.002334063418047114
0.001677457846439048
0.001034820791891473
0.0006040887999790779
0.0004691229178446669
0.0004721523681015146
0.0005115514729797059
0.0005594643480811731
1.029598551748562e-08
2.483842815608275e-07
1.453388065474511e-06
4.411016303392126e-06
9.374973579304281e-06
1.627837877711914e-05
4.315421616227635e-05
0.0001616981612457481
0.0004568359459434183
0.0009643631225225802
0.001620416639742369
0.0023287160866659
0.00301974572455511
0.003647706567005084
0.004172719636911428
0.004562901154065701
0.004797284936963113
0.00486281553646418
0.004762227332471196
0.00450792070488539
0.004124050291507061
0.003633341117238747
0.003064847704746261
0.002433410436226153
0.001748843377139889
0.001085639745577281
0.0006435536881986319
0.0005035792414453397
0.0005055890921654862
0.0005461641517377639
0.0005969050620533112
1.981284640944962e-08
3.181800254190362e-07
1.933256296940273e-06
5.927686427406548e-06
1.284892045035543e-05
2.229600818094294e-05
3.389093536264867e-05
8.057124162436132e-05
0.0002525331492186549
0.0006073078254888273
0.001174815410262152
0.001881643571442642
0.0026270341250778
0.003343670051712445
0.003985731932950891
0.004513014901846401
0.00489422177943779
0.005109812971958716
0.00514923480410312
0.005017793659056252
0.004730344841024646
0.004312834779013391
0.003789459708417494
0.003189804976310922
0.002528785281219316
0.001818205290283516
0.001136058422209203
0.0006841684162005808
0.000539498739137576
0.0005404784771121857
0.0005823810770456435
0.0006360781148987176
4.09933668588178e-08
3.659352345175654e-07
2.478864286842206e-06
7.88541075542241e-06
1.72724383334746e-05
3.056507847770115e-05
4.618876490620437e-05
6.344825419068585e-05
0.0001346858945395472
0.0003535525574394654
0.0007575747945747082
0.00138337869876902
0.002140145153420861
0.002922567308893413
0.003664871390107157
0.004320540030738156
0.004848990628281855
0.005219767772098901
0.005415149851006437
0.005427410955780273
0.005264630839846705
0.004944175517048849
0.004493710894602397
0.003938792529789001
0.003309277763432794
0.002620466620451941
0.001885474084573929
0.001186457968174064
0.0007262854917726632
0.0005772561426939132
0.000577159047884993
0.0006200273718144483
8.112978227715006e-08
3.664247838229591e-07
2.844039479661294e-06
1.011185278131804e-05
2.296426041828471e-05
4.104002105933073e-05
6.315163889360341e-05
8.575606993302303e-05
0.0001079152368214474
0.0002026028903535517
0.0004567235682571316
0.000907804332361141
0.001592194153254745
0.002398335753276149
0.003217451341045311
0.003984835629432196
0.004652896933146858
0.005180769531067122
0.005539178660587086
0.00571263702889098
0.005696554523229769
0.005501951485390692
0.005148721013561996
0.004666139819557065
0.004080983214724682
0.003423465033616198
0.002708405991047722
0.001950776804105374
0.00123718880460498
0.0007704162518641054
0.0006173950244843415
0.000615641785763698
0.0006595360414683635
1.387808008388864e-07
3.283274972732145e-07
2.828092326253881e-06
1.160485499024434e-05
2.942574745675437e-05
5.442545990728383e-05
8.43717223597289e-05
0.0001162344424943289
0.0001439128911405631
0.0001671480664099241
0.0002783280721806477
0.0005590595775114821
0.00105991453355742
0.001803236694262094
0.002658060788696815
0.003513146853542231
0.00430438497702583
0.004982965853966521
0.005507956587129311
0.00585167322321538
0.006001291798857892
0.005955639847889293
0.005728805875670343
0.00534318628595512
0.004829525335287401
0.004216127584838105
0.003532244574596405
0.002792455107898194
0.002014331050845759
0.001288759093996842
0.0008173027433199779
0.0006602368627048967
0.0006565411730204878
0.0007017177595620674
1.92999133163137e-07
2.68080654914056e-07
2.489531390357914e-06
1.154883907969875e-05
3.376246189664764e-05
6.952172349269376e-05
0.0001110749327331292
0.0001534103742791509
0.0001917229658513185
0.0002187841650756944
0.0002373347211325648
0.0003568224999106056
0.0006610309438329027
0.001215828913215884
0.002018104083647089
0.002920702105815515
0.003810520646701149
0.004623764571558951
0.005310383108967171
0.005829705086616283
0.006156107996122571
0.006279858566949853
0.006203447777235816
0.005944116595103953
0.005526700043953613
0.004983774081532588
0.004343962895319261
0.003635210193950356
0.0028726547815359
0.002076476033966287
0.001341907840339112
0.0008676505393364747
0.0007065667867514123
0.0007012128423934459
0.0007475162161038265
2.0685627391426e-07
2.029131071109941e-07
1.957275675924997e-06
1.01752477288436e-05
3.362930956055042e-05
7.961540797370831e-05
0.0001407017086234713
0.0001988891503415485
0.0002478949820735672
0.0002845928276778066
0.0003040741257922898
0.0003135363237492889
0.0004357134446328976
0.0007643803248924449
0.001377079906434004
0.002238002263434952
0.003187140139345112
0.00410991191949504
0.004942704808015203
0.005634314046940471
0.006144769798693528
0.006451027700683862
0.006546854766505099
0.006438605915636124
0.006146710868797998
0.005698940467553797
0.005128369149742995
0.004463788133999246
0.003732212844081542
0.002949128711101532
0.002137728427131714
0.001397539700635518
0.0009222165024176338
0.0007583241943559108
0.0007509584054035999
0.0007991465773060271
1.734435411324306e-07
1.439084140255038e-07
1.388579966069373e-06
8.003793716847963e-06
2.967960619657021e-05
7.934569314131434e-05
0.0001602505952783671
0.0002478917860990159
0.0003141094040852146
0.0003590000492991549
0.0003858031589809467
0.0003932422034304729
0.0003921833589833576
0.0005145671121733926
0.000870953829222055
0.001544823424233854
0.002463763283882753
0.003457795595324355
0.004411179517710039
0.005260465835423987
0.005953498657365543
0.006451555498331127
0.006734714473158519
0.006800616920794386
0.006659627413450473
0.006336009409030887
0.005859089235439905
0.005262331652339122
0.004575222893610061
0.003823157182477499
0.003022118304173461
0.002198848201230401
0.001456230349063333
0.000983424842366809
0.0008173525895104331
0.0008085761190439524
0.0008610052705832872
1.371367753492658e-07
9.993551405061302e-08
9.105340499462192e-07
5.676168059537702e-06
2.339803820391138e-05
7.019529705218279e-05
0.000159702675289207
0.0002794454030270049
0.000383013064081702
0.0004438026570957969
0.000475615466753608
0.0004880925589600956
0.0004822563132777922
0.0004714578191561276
0.0005938036889365766
0.0009823219536304734
0.00171990497662394
0.002695862160140069
0.003732659264376544
0.004713734196958269
0.00557587164480185
0.006266291846689309
0.006748163902419028
0.007005236435971178
0.007039345464817427
0.006865660618348485
0.006510859580586347
0.006005825365791298
0.005385040567207203
0.004677932579723316
0.003908020307503078
0.003092101573155217
0.002260227451192684
0.001520307712193502
0.001053519233204402
0.0008870326706306244
0.0008793258875177514
0.0009404891980925049
0.00415329041487056
1.329601960910943e-07
7.495046984872464e-08
6.005724066231763e-07
3.71705540626678e-06
1.663654028752876e-05
5.554266098432336e-05
0.0001418714536300658
0.000278313612431543
0.000426136132251521
0.0005295485228571348
0.0005755530458569032
0.0005905771214329598
0.0005878282922585512
0.000569398163725072
0.0005506470172523276
0.0006740767710993973
0.001099742496575144
0.001902898620880616
0.002934426427574906
0.004011310927347693
0.00501656135524475
0.005887339586983138
0.006570705029217687
0.007032444003036336
0.007260499448823621
0.007261913243214554
0.007055200994989577
0.006669586529184861
0.006138234711634938
0.005495911367283269
0.004771628130230343
0.003987000143056663
0.003159299981039412
0.002323536233457839
0.001592049032751198
0.001135958134855631
0.0009735007225782256
0.0009710376373822568
0.003759973338419782
0.00415268440636944
0.004158806136839629
0.004552164202611376
1.546632751298567e-07
6.719621233752271e-08
4.424401146081424e-07
2.447584855065004e-06
1.092152305842363e-05
3.967277738143965e-05
0.0001130435175136127
0.0002489498022426098
0.0004240245582473077
0.0005819226652655931
0.0006746181253278142
0.0007028053621807118
0.0007009598534007299
0.0006838099119895577
0.0006542097592166283
0.0006295429232245681
0.0007560405752088176
0.001224214102714224
0.002094118150981453
0.003179239178973133
0.004292930897218192
0.005318239435537423
0.006192910844529297
0.006864451462534335
0.007302046038218414
0.007499108706346497
0.007466455586769997
0.007226215034942926
0.006810977298906035
0.006255446721468114
0.005594403840183465
0.004856235034101765
0.004060126681266023
0.003224636937712127
0.002390586393439712
0.001674409176400594
0.001237157679427657
0.001084798772035419
0.00109739033110586
0.003771320710747848
0.004146552229233701
0.004530103875310804
0.004577313521368311
0.004594882928902509
1.848012518931241e-07
6.873148072855948e-08
3.85108713122364e-07
1.800290412730212e-06
7.199060247199234e-06
2.617081875066183e-05
8.145361246227422e-05
0.0002008204249607381
0.0003826236911353456
0.0005785286257741506
0.0007339788150911857
0.0008125075076390691
0.0008234356503811859
0.0008061036925487545
0.000775925618382004
0.0007367524129852968
0.0007081028876354517
0.0008403034743773343
0.00135652561252452
0.002293611363762355
0.003429737825317054
0.004576308253752269
0.005616958680005953
0.00649028588637017
0.007144999234846587
0.007555330274156859
0.007718841101559596
0.007650578059069976
0.0073771934680586
0.006933883074323153
0.006356645951834499
0.00568020666916536
0.004931561487599841
0.004127716557788756
0.003289253711383801
0.002463476340873667
0.001773282360201747
0.001364405595042758
0.00123389844738706
0.00127861148056979
0.003613945400992888
0.003782229167901387
0.00414022028050375
0.004505007913839561
0.004575334018688218
0.004601842887331689
0.004617228948222031
0.004772207858606222
2.729302184047718e-07
7.744668935137637e-08
3.734907262916011e-07
1.562952321710201e-06
5.292789231697733e-06
1.7303159875018e-05
5.424299609902879e-05
0.0001469872562280673
0.0003137822766121324
0.0005264240021306213
0.0007291408035883759
0.0008771911900344767
0.0009418177353044296
0.0009372933479769028
0.0009062029065946766
0.0008644270693512231
0.0008172421163428215
0.000786291288903735
0.000927448029099153
0.00149727874443921
0.002501145792354894
0.003685011402146537
0.004859849608041005
0.005910544410150849
0.006776868446040257
0.00741051194242709
0.007789727809375716
0.007916942188388541
0.007812474809058971
0.007506720075063062
0.007037238272321733
0.006441264756773642
0.005752940466233823
0.004997462885593783
0.004190305985979482
0.003354385251343614
0.002546691515434021
0.001895038583688899
0.001528786827188349
0.001438940855452021
0.001543669775768068
0.003638862168582422
0.003629178893427311
0.00379231775962917
0.004133539545199679
0.004480104990941028
0.004554892598373298
0.004769987031596242
0.004627449134779786
0.004639778471689877
0.004780738008053632
0.005531985818785516
5.100894211182039e-07
1.202941720516082e-07
4.094414902004808e-07
1.5115362298081e-06
4.588658509631786e-06
1.273186148456171e-05
3.611476409723331e-05
9.957425199187147e-05
0.0002347901185088254
0.0004389149788951991
0.0006679752253106067
0.0008708483037846472
0.001010602356321859
0.001062804151455697
0.001044847188704556
0.00100166668024908
0.0009496265350402078
0.0008958927361075146
0.0008640177343413433
0.001018065417133216
0.001646886101702725
0.002716191315305966
0.003943799217580327
0.005141592136005244
0.00619648821329408
0.007050717683790601
0.007658113871634176
0.008002130151161552
0.008091308174490389
0.00795046391334892
0.00761350054398822
0.007120263587681718
0.006508706693700519
0.005811775153064345
0.005053303974245454
0.004248115928065192
0.00342282237733052
0.002645283870564525
0.002048821483104903
0.001744813748426224
0.001722527536043637
0.001911140455053294
0.003653215369935888
0.003644173002835072
0.003801646577872795
0.004126391108941166
0.004455501775988779
0.004535918363368556
0.00476998271238482
0.005550659367259682
0.004654267853908384
0.004663136263720191
0.00479279047154136
0.005523944746902793
0.006706248872417172
9.832722318137881e-07
2.557725547123902e-07
6.507286211991656e-07
1.654525731513357e-06
4.434656334864191e-06
1.102683465493245e-05
2.666875863266585e-05
6.721106797370029e-05
0.0001631065581039012
0.0003362432092523698
0.0005647397753404475
0.0008019758296118028
0.001002763730487766
0.001134714466352009
0.001176137858203159
0.001146651278705198
0.001092886644486497
0.00103178917588475
0.000972850091984949
0.0009411267346826427
0.001112784225817176
0.001805551949659925
0.002937903339609103
0.004204420833096996
0.005419223983121222
0.006472886053970656
0.007308737887470686
0.007884364412471027
0.008190127737545461
0.008239987009906392
0.008063027503830349
0.007696576488484995
0.007182200858856325
0.006558205176848311
0.005856003701023123
0.005098058861709066
0.004300867874889648
0.003497125993723231
0.002766154117192552
0.002246484551031677
0.002029025289277639
0.002096762047626723
0.002378833324696916
0.003792435725437063
0.003667912656107645
0.003658926612549071
0.00381045018940337
0.004118688412191432
0.004431322965279865
0.004518699196090496
0.004774554323826012
0.005573167176368477
0.006736950693534522
0.004686989406304336
0.00480910364928607
0.005522441856158107
0.006685690478830487
0.007974604228618745
7.292507836164316e-07
6.435765344267033e-07
1.46005644406624e-06
2.62962072201736e-06
4.85137482981377e-06
1.064837875838788e-05
2.30954598147735e-05
5.005185789316006e-05
0.0001124947516352934
0.0002403340241304205
0.0004417065115183475
0.0006855217179871948
0.0009272858024541028
0.001125442364593111
0.001250333462691973
0.001282469567485074
0.001243163500936654
0.001180170903828418
0.001111102147988396
0.001048160920193889
0.001017419134732278
0.001212285791723153
0.001973242877101616
0.003165109500597477
0.004464793598188583
0.005690986705891359
0.006736586010302117
0.007547221423506814
0.008086545422140779
0.008351481161364534
0.00836123325692744
0.008149042771483829
0.007755055100462939
0.00722255184063833
0.006589292327358406
0.005885194216142242
0.005131778684672843
0.00434865452100059
0.003578535529982802
0.002915225954004108
0.00249431872473137
0.002386384315252912
0.00255398720063287
0.002914053025528143
0.003363422641306143
0.003968990947061829
0.003802523542549065
0.00368289894261106
0.003673613142393639
0.003818749872710773
0.004110358129982928
0.004407694742725956
0.004503682024048484
0.004783952984565981
0.005602424659126633
0.006769152875937295
0.00801823265307655
0.004711311369837955
0.004829428804807212
0.0055292463723928
0.006670482480190954
0.007943117067354148
0.009318346973179348
2.605135430186815e-07
1.903846496131784e-06
4.000925839662151e-06
5.914038621381776e-06
7.695213406136177e-06
1.163604616231114e-05
2.227834282355369e-05
4.342913577224693e-05
8.500818683690314e-05
0.0001701882322157507
0.0003241326407933826
0.0005452835654411993
0.0007995945298425042
0.001044334468184833
0.001239729379206562
0.001358189718896894
0.00138232140477679
0.001334711475809007
0.001263717555204552
0.001187670220521502
0.001121753644683552
0.001092697100802774
0.00131730226809983
0.002149654315303574
0.003396304176056626
0.004723417335457759
0.005953829891061311
0.006983770931613682
0.00776316525950448
0.008262106529773329
0.008484191565410474
0.008453761131075561
0.008207495578196345
0.007788204849918059
0.007240864338390901
0.006601563697866617
0.00589905316515625
0.005154687697222217
0.004392974028535671
0.003670847226195967
0.003097232860955057
0.002797916506293306
0.002808370478201391
0.003062509840052785
0.003446070897501972
0.003843639873123055
0.004120704490957507
0.004247346803258075
0.004241453633276267
0.004137717595937627
0.003976886336334888
0.003814463290854228
0.003698614676026534
0.003688448160381435
0.003826671593861841
0.00410190782789261
0.004384717336573673
0.004491302245566938
0.004798554130811619
0.005638320666925718
0.006807004469306099
0.008066386376013496
0.009405900638026439
0.004735878779106697
0.00485364165227433
0.005544127846221793
0.006664213553928096
0.007917930227953267
0.009245418126316983
0.01084155782854663
3.053646836399939e-06
5.185869675493938e-06
1.42046717579001e-05
1.627272389930816e-05
1.727993776725461e-05
1.838180071029485e-05
2.428971071747938e-05
4.183874379922679e-05
7.41255175404472e-05
0.0001310985274387613
0.0002355292282037924
0.0004090223268100401
0.0006446781642892187
0.0009070649467964771
0.001153918011581726
0.001346380444264304
0.001458850052299877
0.001476074510486231
0.001421514472451901
0.00134362408254552
0.001261517686474812
0.00119342374073403
0.001166827892569917
0.001428595314194745
0.002334178012714589
0.003630384340487592
0.00497749889242962
0.006204014643512916
0.007211270525193018
0.007953697335773974
0.008408755339734937
0.008586784814676488
0.00851642899589578
0.008237531084615023
0.007795992807335517
0.00723685031036697
0.00659470924280216
0.005897416126482835
0.005167137951350531
0.004436704917434846
0.003780238351659205
0.003318889647272558
0.003151804461698938
0.003268491254622638
0.003562229922496852
0.003903236771626054
0.004154019958199361
0.004266061613759297
0.004252670790688581
0.00414631144268815
0.003987935623782563
0.003828697044301084
0.003715498853123664
0.003703726680251916
0.003834458633157571
0.004093600700495145
0.004362552105919952
0.004481989729958591
0.00481866730779958
0.005680595216955017
0.006850717165818344
0.008122902758013013
0.009502235216182545
0.01100559303615904
0.004760931026012293
0.004881765793397881
0.005567006602997093
0.006667348093892066
0.007902372941827005
0.009182641591816275
0.01069483146704458
0.01242003457880107
8.80028910648838e-06
1.07344243421455e-05
4.053938041176421e-05
5.817847726362703e-05
4.752444764475848e-05
4.105806315119135e-05
3.807017736612114e-05
4.543245380681804e-05
7.133392935287674e-05
0.0001152043680367952
0.0001850267632876303
0.0003038486139262444
0.0004922900806178259
0.0007395015122129462
0.001008567323824237
0.001256775734801265
0.00144597373304636
0.001552723215151924
0.001563989513673235
0.001503699781782128
0.001419905017433388
0.001332588572975987
0.001262824404929346
0.001239820999603282
0.001546914839881856
0.002526464199122664
0.003865010158769694
0.00522356568787932
0.006438385353561258
0.007415969622726293
0.008116187201692739
0.008524780084002688
0.008657954726843
0.008548343456064441
0.008238883173691702
0.007778293809257993
0.00721036085348032
0.006568535767546742
0.005880171727057917
0.005170312709891316
0.00448343804644134
0.00391321788289789
0.003579267049212448
0.003536900959584042
0.003716751984598662
0.003985767679986478
0.004200514442610835
0.004293338065298268
0.00427017158097806
0.004159999884377868
0.004002642416605261
0.003845640812858405
0.003734025888712331
0.003719834126978195
0.003842448763141979
0.004085830143597449
0.004341781339594336
0.004476203454761817
0.00484457685639975
0.005728662186852539
0.006899880422923065
0.008187387632985474