/*--------------------------------*- C++ -*----------------------------------*\
| =========                 |                                                 |
| \\      /  F ield         | OpenFOAM: The Open Source CFD Toolbox           |
|  \\    /   O peration     | Version:  2006                                  |
|   \\  /    A nd           | Website:  www.openfoam.com                      |
|    \\/     M anipulation  |                                                 |
\*---------------------------------------------------------------------------*/
FoamFile
{
    version     2.0;
    format      ascii;
    class       volScalarField;
    location    "518";
    object      nut;
}
// * * * * * * * * * * * * * * * * * * * * * * * * * * * * * * * * * * * * * //

dimensions      [0 2 -1 0 0 0 0];


internalField   nonuniform List<scalar> 
28642
(
8.004937387407989e-14
7.182896877824689e-14
1.434145600164789e-13
5.081534659170108e-14
1.205857456890315e-13
1.938592502254429e-12
3.258634967371115e-14
9.072590861977084e-14
1.383344864607373e-12
1.934243839987388e-11
2.511905432015234e-14
7.100395511452004e-14
1.196737805648141e-12
1.258776338021774e-11
1.183453294946818e-10
2.787019159094861e-14
6.941348500825026e-14
1.08907024988795e-12
1.092327400241294e-11
7.140897866829318e-11
5.273392845642569e-10
4.569851150124655e-14
1.230104980383025e-13
1.200754883207746e-12
1.004169859675857e-11
6.11502038269167e-11
2.980938570038733e-10
1.887445338717095e-09
7.315501050432822e-14
4.068920877105869e-13
2.46963056287888e-12
1.110028729130423e-11
5.628106769784964e-11
2.509544043504201e-10
1.010007406336215e-09
5.721373287972998e-09
1.038169895561139e-13
1.125367587707312e-12
9.138221883387536e-12
2.293045888253482e-11
6.204618614850172e-11
2.309764021044769e-10
8.350766697955189e-10
2.93338496844767e-09
1.511590579854592e-08
1.359744873683336e-13
2.28806130126562e-12
2.642601168666665e-11
8.517985764262356e-11
1.278563816983166e-10
2.540537104212071e-10
7.684196278417857e-10
2.382727101789822e-09
7.532798078830099e-09
3.538217331233517e-08
1.726575034861298e-13
3.871506830087982e-12
5.472137142334908e-11
2.470107624801167e-10
4.745852430423783e-10
5.215839822972253e-10
8.443746879970741e-10
2.192048915246422e-09
6.018256451223446e-09
1.741699447369242e-08
7.429326091234672e-08
2.18295414515742e-13
5.886406279514039e-12
9.347744040105382e-11
5.121375038492684e-10
1.376907089926773e-09
1.9311086014496e-09
1.725587763409941e-09
2.411007950783918e-09
5.534794079876407e-09
1.370896603897432e-08
3.66988917708812e-08
1.418137764275675e-07
2.766674503654197e-13
8.285110764419079e-12
1.429108185919848e-10
8.752908335703846e-10
2.852831463622342e-09
5.588050530843664e-09
6.350489185169317e-09
4.899055101437349e-09
6.107285222357236e-09
1.259395797981538e-08
2.850598881219017e-08
7.12186404677773e-08
2.494957881564428e-07
3.53776085553227e-13
1.086749262905046e-11
2.01749322684206e-10
1.338344918573621e-09
4.867365159133005e-09
1.151200387519963e-08
1.81767131685495e-08
1.778907919243369e-08
1.231612165981036e-08
1.396976322932697e-08
2.61089020411783e-08
5.467128783792032e-08
1.2870697216226e-07
4.093021141890179e-07
4.523563505713458e-13
1.344709402460614e-11
2.649524355436791e-10
1.88897485277454e-09
7.42293786323625e-09
1.947281298564183e-08
3.674863354204756e-08
4.94825617192572e-08
4.352757430982833e-08
2.787346558068077e-08
2.913924671375662e-08
4.976185536307386e-08
9.780066191195623e-08
2.188506752027425e-07
6.320333262656208e-07
5.739732185066319e-13
1.567990748001411e-11
3.277020675274142e-10
2.479732003782074e-09
1.043951291227689e-08
2.936334367937614e-08
6.065046893852641e-08
9.599435011992325e-08
1.14650895698239e-07
9.40371360393101e-08
5.727404130242766e-08
5.581984294526374e-08
8.810776609337212e-08
1.650958906030594e-07
3.527708960067023e-07
9.264399858112896e-07
7.134611431416621e-13
1.729554982405845e-11
3.813827001063368e-10
3.064421690523042e-09
1.36463339259359e-08
4.073756653972074e-08
8.889656210954095e-08
1.514443027941291e-07
2.089130369056691e-07
2.291277628695465e-07
1.808653930293659e-07
1.075530589732079e-07
9.902344198225366e-08
1.4670414053581e-07
2.655060992347069e-07
5.417141933013434e-07
1.299489653278686e-06
8.629374366839749e-13
1.801529482052601e-11
4.191722432345828e-10
3.56249032065344e-09
1.677944266641956e-08
5.248028977230066e-08
1.19708859509756e-07
2.124455499713893e-07
3.116870165755588e-07
3.891380534212336e-07
4.035163374302132e-07
3.137151784928534e-07
1.861652076741748e-07
1.644251790992948e-07
2.323982089122607e-07
4.091426702693223e-07
7.957518373031031e-07
1.757095844036098e-06
9.994481865839454e-13
1.780647140233282e-11
4.34263927553914e-10
3.909921001015609e-09
1.94052051923709e-08
6.357945887479617e-08
1.499525761361347e-07
2.749940416989478e-07
4.173991162609253e-07
5.505340316846511e-07
6.419754069374349e-07
6.426410534410576e-07
4.990252858064396e-07
3.002066303332051e-07
2.584098321131478e-07
3.532633282660833e-07
6.060038460142501e-07
1.123346927135983e-06
2.30487524587642e-06
1.094992573377829e-12
1.655909296729495e-11
4.259308735395764e-10
4.044666239954931e-09
2.118747286090744e-08
7.254920528760441e-08
1.772075687051969e-07
3.333983044630487e-07
5.206105777439773e-07
7.086091837917329e-07
8.690451520901245e-07
9.677775842721948e-07
9.477672179994558e-07
7.40420406283573e-07
4.559623852978948e-07
3.879215886007695e-07
5.178806231867606e-07
8.648736925285682e-07
1.531760664672111e-06
2.948713323744963e-06
1.11479401115567e-12
1.439316409321534e-11
3.920330203285893e-10
3.9601619957741e-09
2.18181453972838e-08
7.832813508618677e-08
1.982559121705899e-07
3.83944286705568e-07
6.137323981530848e-07
8.582086916416445e-07
1.084612463164762e-06
1.265466590275315e-06
1.365463675462761e-06
1.31890785967513e-06
1.039898332932154e-06
6.587181352709128e-07
5.599127200598177e-07
7.343542813264534e-07
1.193066718486611e-06
2.02776297072662e-06
3.695076488330397e-06
1.03628240302591e-12
1.148919573650358e-11
3.36137078884799e-10
3.63981130856556e-09
2.127604031403498e-08
8.001040111328613e-08
2.110293801771413e-07
4.21682225229897e-07
6.923821409192218e-07
9.906274043584385e-07
1.285099109195481e-06
1.542945953489808e-06
1.738164870291382e-06
1.834247013983072e-06
1.756095262368472e-06
1.398833254924248e-06
9.1282999884874e-07
7.807123485517081e-07
1.009704797820073e-06
1.596894902389423e-06
2.61826328720532e-06
4.551094855167197e-06
8.526986870746692e-13
8.224490928080849e-12
2.635160130408785e-10
3.117918110563437e-09
1.950388811762893e-08
7.761056264719075e-08
2.138037480681052e-07
4.436391262153093e-07
7.501180510637241e-07
1.101201832862929e-06
1.461009797997889e-06
1.798832853417525e-06
2.082149463240419e-06
2.286516016428071e-06
2.374144386005088e-06
2.259856787723181e-06
1.818557384081883e-06
1.221323747904893e-06
1.055717752960682e-06
1.349887641603092e-06
2.082381007838982e-06
3.310759172803814e-06
5.524315510423082e-06
5.696383715264453e-13
5.122274427323936e-12
1.839142760956738e-10
2.444692161683605e-09
1.669373653219175e-08
7.103375236362673e-08
2.067564244773212e-07
4.472008656972939e-07
7.831466037119872e-07
1.182040534533447e-06
1.607443019553295e-06
2.022796798506242e-06
2.398426881855238e-06
2.70207458464557e-06
2.910951067913163e-06
2.985991758546885e-06
2.831310757686512e-06
2.300628910542157e-06
1.58697346852104e-06
1.38949656432095e-06
1.760238040615412e-06
2.655900460467966e-06
4.113648891591879e-06
6.621785943851412e-06
2.52269874564231e-13
2.722046251301252e-12
1.104709181219527e-10
1.708087476028152e-09
1.311555663875366e-08
6.093808436606425e-08
1.897201164051892e-07
4.326853004424288e-07
7.878275976780653e-07
1.228444337341569e-06
1.714911463246077e-06
2.209544566075816e-06
2.675590329400427e-06
3.084324006230773e-06
3.403693708009094e-06
3.612778864902357e-06
3.671322002505468e-06
3.472125174805239e-06
2.846953320282113e-06
2.012479728012314e-06
1.786143709628477e-06
2.246045177188783e-06
3.324668143777583e-06
5.036513474420864e-06
7.273202833021506e-14
1.232271403019413e-12
5.644267599842436e-11
1.028528776041784e-09
9.207466440591082e-09
4.822011484218261e-08
1.640616775504436e-07
3.995708326935063e-07
7.644151488558678e-07
1.23553450927865e-06
1.77762374115674e-06
2.347752994153831e-06
2.90770713900123e-06
3.420442318168971e-06
3.858086646812057e-06
4.188845285724025e-06
4.393995614180771e-06
4.432230722649808e-06
4.184443810473987e-06
3.459839535174659e-06
2.500636274004692e-06
2.249718122410939e-06
2.813084394610517e-06
4.097096851376813e-06
6.090490727709692e-06
2.555314012210054e-14
5.285840255299874e-13
2.577448273938267e-11
5.272311604492043e-10
5.590920224065994e-09
3.425155148500527e-08
1.316760765658598e-07
3.497137218599188e-07
7.116010534925509e-07
1.203248895285147e-06
1.789222654869357e-06
2.430312524158982e-06
3.081338269258789e-06
3.703558566980989e-06
4.259497833681436e-06
4.722115230262741e-06
5.060024991578789e-06
5.257131896159415e-06
5.271264692338735e-06
4.970818421549611e-06
4.141916750159536e-06
3.054546063626826e-06
2.784670411529631e-06
3.468061785118109e-06
4.983064685899277e-06
7.269594401065068e-06
1.211882714670452e-14
4.115571996445756e-13
1.178872418607543e-11
2.421774958980553e-10
2.898196032367088e-09
2.11587122023618e-08
9.543761086361281e-08
2.858503429894665e-07
6.311600623549936e-07
1.129103845803182e-06
1.749085605367239e-06
2.449143704166873e-06
3.187816323324064e-06
3.91781836304483e-06
4.599779337053701e-06
5.195709121379825e-06
5.679440749010011e-06
6.020234202539309e-06
6.205140264413918e-06
6.191338153133273e-06
5.834160489754676e-06
4.895368811338467e-06
3.677839612632265e-06
3.396246937761816e-06
4.218981069890487e-06
5.974959562624485e-06
8.590109217010485e-06
6.276787124091717e-15
5.488982521952168e-13
9.694431765817117e-12
1.112151891687495e-10
1.35001569333176e-09
1.121278718842786e-08
6.055229790970443e-08
2.123086079906515e-07
5.259402364330734e-07
1.014217237690557e-06
1.653246338628367e-06
2.402831222253795e-06
3.217099704360956e-06
4.05275123097326e-06
4.860349608471512e-06
5.599823828570812e-06
6.23263876274104e-06
6.733583707685596e-06
7.072874849052566e-06
7.241316391946647e-06
7.195675399181335e-06
6.777721013565718e-06
5.723437024468528e-06
4.374926219133769e-06
4.090890691968645e-06
5.062727511270945e-06
7.088097099382934e-06
1.008158886179684e-05
5.102903091300345e-15
7.405116209812005e-13
1.336050096859243e-11
9.057755504888066e-11
6.25917675392324e-10
5.37248811360372e-09
3.317086386600394e-08
1.388480926079154e-07
4.007112852440629e-07
8.606986337338833e-07
1.501705851575703e-06
2.285669905531972e-06
3.166751853976941e-06
4.096118040007884e-06
5.028685150997261e-06
5.912827025390414e-06
6.707737113805843e-06
7.374332554181112e-06
7.88846136792359e-06
8.221678514037736e-06
8.36924709091108e-06
8.287778570628919e-06
7.804578947563122e-06
6.629898409068974e-06
5.151310522326491e-06
4.870464024819441e-06
6.010439633219512e-06
8.34731547972899e-06
1.176199511165022e-05
7.756644930126541e-15
9.910098398343151e-13
1.825635957253298e-11
1.248169138620605e-10
5.051288516434317e-10
2.553674506747357e-09
1.661510059163277e-08
7.887728415817465e-08
2.699632704925062e-07
6.722407123474747e-07
1.295148927847334e-06
2.096170368751214e-06
3.029096852377636e-06
4.044231500619824e-06
5.090117415455955e-06
6.119886028847402e-06
7.079716165486583e-06
7.928044210301303e-06
8.62524322171787e-06
9.148330049290271e-06
9.470660539269051e-06
9.592781761314459e-06
9.470979341950047e-06
8.91799028682305e-06
7.61925328121704e-06
6.012231575512247e-06
5.741649366018243e-06
7.080829575980643e-06
9.769125595290042e-06
1.364968378635743e-05
8.981604418573981e-15
1.318730233045944e-12
2.451580307969507e-11
1.709008010275883e-10
6.956282516787311e-10
2.057156500636035e-09
8.287134079486571e-09
4.164825419832299e-08
1.582105070744817e-07
4.662859879036469e-07
1.034845723378597e-06
1.833069713765985e-06
2.80082379675222e-06
3.887222062970393e-06
5.039473800236533e-06
6.20367059450202e-06
7.331168210972303e-06
8.365959081377417e-06
9.265691161294928e-06
9.990189333207852e-06
1.051775143592696e-05
1.082409370742891e-05
1.091602677125925e-05
1.074872783125437e-05
1.012180853410976e-05
8.697896894502142e-06
6.961685987838035e-06
6.718968188321397e-06
8.289131429263362e-06
1.137168654867438e-05
1.576095145013685e-05
1.72834520912406e-14
1.689275978115679e-12
3.26132075169982e-11
2.297286460211988e-10
9.542503610880025e-10
2.834646726495726e-09
6.765515773060572e-09
2.23283071287976e-08
8.746862665479758e-08
2.805103112249644e-07
7.383398633382094e-07
1.494259639487752e-06
2.478289905361163e-06
3.619644030897123e-06
4.864470929827917e-06
6.157281453444379e-06
7.441863843795073e-06
8.667814764948833e-06
9.776933708593792e-06
1.072602302318069e-05
1.147434003270109e-05
1.200157730766362e-05
1.228649927101308e-05
1.234281957469096e-05
1.212479209710756e-05
1.142321464180169e-05
9.869132150770019e-06
8.011092129363898e-06
7.816499507881539e-06
9.653514785254337e-06
1.317421616169933e-05
1.808351469283172e-05
3.576061977603461e-14
1.942820898685494e-12
4.181943726601759e-11
3.056991896578767e-10
1.283821777894712e-09
3.894964890039779e-09
9.347461218778653e-09
1.889773828645909e-08
5.100573296823835e-08
1.598771349949992e-07
4.554437688601545e-07
1.09442239690183e-06
2.055397326807448e-06
3.235080812605735e-06
4.55722203823861e-06
5.96579934580144e-06
7.402925110313848e-06
8.810232291730053e-06
1.013555478883054e-05
1.131845193768167e-05
1.231478844007495e-05
1.30832177804054e-05
1.360494785993883e-05
1.386265676118995e-05
1.38772585199137e-05
1.360745917877043e-05
1.282544617173275e-05
1.113958660942321e-05
9.172857715672204e-06
9.052357611337884e-06
1.119536527781221e-05
1.517429737163001e-05
7.077386917528324e-14
1.945460839826308e-12
4.798221479736514e-11
3.92126171081109e-10
1.708519671795665e-09
5.240183006163723e-09
1.284310989371674e-08
2.622653213096106e-08
4.581335566690782e-08
1.006621473266572e-07
2.641179712425077e-07
6.925949145468441e-07
1.541109828582527e-06
2.722974293556015e-06
4.108157763575156e-06
5.6185956596472e-06
7.196570871766597e-06
8.78208876085287e-06
1.031475399691348e-05
1.174058232912191e-05
1.299678579962161e-05
1.403816355841674e-05
1.482271547607413e-05
1.533330351367043e-05
1.555764409613615e-05
1.552905495175854e-05
1.520031929764364e-05
1.433115552869422e-05
1.251797241363574e-05
1.046354842602857e-05
1.044979311188835e-05
1.291914380099892e-05
1.739724963524007e-05
1.210636698460898e-13
1.743178544375207e-12
4.771346161957059e-11
4.501101634555105e-10
2.191394396948022e-09
6.965534657520996e-09
1.722590970907702e-08
3.584815393608669e-08
6.382048969202572e-08
9.713457254132991e-08
1.760322073691491e-07
4.060511717504147e-07
1.000629903017383e-06
2.084056472096581e-06
3.501663219770954e-06
5.10257976119018e-06
6.809136732554293e-06
8.562506668312297e-06
1.030087560253555e-05
1.196188787663843e-05
1.34896051632732e-05
1.481871428745955e-05
1.590279019664057e-05
1.669912448674062e-05
1.719241095560609e-05
1.73831068658907e-05
1.73026729617045e-05
1.690432787493498e-05
1.594581858003634e-05
1.401592701372692e-05
1.190536417937993e-05
1.202201701559003e-05
1.485717311728405e-05
1.988637788642073e-05
1.683604319447043e-13
1.423252196031512e-12
4.199699527880586e-11
4.478880776256181e-10
2.515855304883042e-09
8.919458119213016e-09
2.277947241126475e-08
4.75964032544049e-08
8.600967281399579e-08
1.35276837899928e-07
1.815998643498243e-07
2.804055702384954e-07
5.922830087323188e-07
1.387065647052124e-06
2.728566005039678e-06
4.396531545512173e-06
6.223660614632052e-06
8.134502766785985e-06
1.006969795870236e-05
1.196586257034046e-05
1.375864603028577e-05
1.538991664956283e-05
1.67915849528415e-05
1.791582469695177e-05
1.871917396669255e-05
1.919530981882267e-05
1.934523529063446e-05
1.919895320516078e-05
1.87238081586206e-05
1.767643428650666e-05
1.564927945879477e-05
1.351623173397432e-05
1.380392795692363e-05
1.705616511491741e-05
2.264636331589269e-05
1.804519128657063e-13
1.077246655688825e-12
3.301086582113505e-11
3.943916370245612e-10
2.504716358424282e-09
1.022898837293997e-08
2.898819982728221e-08
6.209884581287625e-08
1.119285402702619e-07
1.782191946579537e-07
2.515822377396066e-07
3.041312107815947e-07
4.164578849666163e-07
8.297145002671545e-07
1.858544600043364e-06
3.479885155830196e-06
5.412823302159009e-06
7.476926452063931e-06
9.600649162093439e-06
1.172467015735964e-05
1.378419289515093e-05
1.571269108800858e-05
1.744948299029015e-05
1.892338596192759e-05
2.00849953133638e-05
2.089761858127374e-05
2.134900864920249e-05
2.144519487457942e-05
2.122267175054103e-05
2.066384778423234e-05
1.953242731433931e-05
1.743264191196136e-05
1.532657259312285e-05
1.585251993605452e-05
1.954152650248199e-05
2.570821150344019e-05
1.513036000120933e-13
7.63995891082033e-13
2.341410177456659e-11
3.099240693237344e-10
2.206308309805071e-09
1.018165760375474e-08
3.31016169496538e-08
7.787413786198684e-08
1.426797484831107e-07
2.257607847927995e-07
3.230549059542711e-07
4.177956654643452e-07
4.655706676966196e-07
5.866353785620175e-07
1.125179553586332e-06
2.421220869472226e-06
4.343325946084216e-06
6.555939428167367e-06
8.868125942289575e-06
1.121389482608747e-05
1.353449070342165e-05
1.576369911856667e-05
1.783245256552808e-05
1.967704177433525e-05
2.122282494909999e-05
2.24267639636169e-05
2.324278086175534e-05
2.365602315040888e-05
2.368885592957234e-05
2.337912302958375e-05
2.273094003194213e-05
2.152375696039825e-05
1.938644774139769e-05
1.739341606913289e-05
1.821129635018146e-05
2.237618106899495e-05
2.912066747675131e-05
1.196292524419477e-13
5.305412212757914e-13
1.535127040105961e-11
2.195638614242458e-10
1.733953148747954e-09
8.965672735835223e-09
3.291589014897578e-08
8.809160584129625e-08
1.749031882264545e-07
2.798584085047328e-07
3.982756657381303e-07
5.242861203424955e-07
6.336775268130645e-07
6.641858769305108e-07
7.932635037104483e-07
1.485352394214334e-06
3.081054660504095e-06
5.324321474599144e-06
7.831452438220198e-06
1.040329063724557e-05
1.298103466863527e-05
1.550691246149673e-05
1.79130483617769e-05
2.012725476240641e-05
2.208220568671766e-05
2.370798372916396e-05
2.495082615969921e-05
2.575815778495915e-05
2.612413264870041e-05
2.608283019941193e-05
2.567458852526982e-05
2.493383342751865e-05
2.366260011305428e-05
2.155217492077528e-05
1.976445885804353e-05
2.096311980691107e-05
2.565817168453502e-05
3.29352240268373e-05
0.0001581494204005316
1.15986627735896e-13
3.978978875664272e-13
1.012509717198113e-11
1.436860448053864e-10
1.228748411947559e-09
7.040886973370347e-09
2.899391416135999e-08
8.750229649692143e-08
1.95247618342677e-07
3.346299642312644e-07
4.809991288926125e-07
6.317099207912213e-07
7.810641786849552e-07
8.962526906345176e-07
8.971925364058708e-07
1.038695356716703e-06
1.916836778268994e-06
3.843990549734461e-06
6.428473443602232e-06
9.245160873516078e-06
1.208884077114065e-05
1.490949295651897e-05
1.765054628276448e-05
2.024190339323779e-05
2.260745123821948e-05
2.468451508649697e-05
2.638991525567384e-05
2.766182223784519e-05
2.845303735509284e-05
2.87618916859549e-05
2.863458047134531e-05
2.811919966868742e-05
2.7281114358648e-05
2.597351194134994e-05
2.396675470989355e-05
2.251813609276261e-05
2.423414892821741e-05
2.950418732078934e-05
0.0001704563574068473
0.0001580145604908425
0.000157685956543544
0.0001461641317324147
1.349213918493243e-13
3.567402873096159e-13
7.459825507571307e-12
9.460715943769189e-11
8.048432111651596e-10
4.987365413088735e-09
2.277530064708845e-08
7.737769551801018e-08
1.939307568089878e-07
3.686530071193832e-07
5.627638357027197e-07
7.469630930211695e-07
9.24662921747468e-07
1.090796329543116e-06
1.201658725914015e-06
1.16167989701257e-06
1.325550517048494e-06
2.42631265804607e-06
4.716059452291613e-06
7.661619903066003e-06
1.080318242160515e-05
1.393173192816059e-05
1.700751218832717e-05
1.997505472385008e-05
2.276109142670527e-05
2.529376243694385e-05
2.749630762310349e-05
2.927447031285492e-05
3.057074940391634e-05
3.133748054203152e-05
3.157896173143897e-05
3.135672370483443e-05
3.072134889040254e-05
2.978793312347074e-05
2.848144317687122e-05
2.668819044426721e-05
2.577598981335864e-05
2.815489403073485e-05
3.412402338891995e-05
0.0001694601475776635
0.0001580021222928563
0.0001466465103833217
0.0001452725734295554
0.0001444950564643382
1.612108275485596e-13
3.64898103433124e-13
6.49387253926898e-12
6.961800783075091e-11
5.30381356646766e-10
3.270473170809508e-09
1.613972724776424e-08
6.112630010521435e-08
1.730523276398209e-07
3.666933422339103e-07
6.134385187164517e-07
8.592957596104965e-07
1.076041848190011e-06
1.274864914641911e-06
1.450686985910077e-06
1.545901315683909e-06
1.455066938455774e-06
1.656987438369424e-06
3.020664563467438e-06
5.703446952444249e-06
9.029937910922497e-06
1.251208260673107e-05
1.593963859265057e-05
1.928437159183585e-05
2.249135958587935e-05
2.54920992644395e-05
2.819963546962718e-05
3.052466291023859e-05
3.237440166716546e-05
3.368951267426955e-05
3.44224849106353e-05
3.459162626683424e-05
3.425899728959793e-05
3.349246579837445e-05
3.247373259768458e-05
3.122623516947896e-05
2.981254686769474e-05
2.964910284136818e-05
3.29250197081813e-05
3.982921152392809e-05
0.0001735908852647861
0.000168380424215416
0.0001578600755669752
0.0001472878949820288
0.0001452935016344043
0.0001442955985661681
0.0001435739433162031
0.0001653615569826192
2.380864103406314e-13
4.111629225403843e-13
6.298044323947954e-12
6.046212010918348e-11
3.904360462847953e-10
2.159711361881401e-09
1.060808581583329e-08
4.35586851453684e-08
1.386233355681349e-07
3.313096959023588e-07
6.117542426220283e-07
9.295985463783872e-07
1.222562682099906e-06
1.466394540999296e-06
1.680362506668952e-06
1.85818443494542e-06
1.925001316056407e-06
1.775330821440309e-06
2.036958901626602e-06
3.707066545717551e-06
6.812557204587149e-06
1.054009269880416e-05
1.437903579621798e-05
1.81211710269269e-05
2.17506286199593e-05
2.522114687726267e-05
2.844917236210547e-05
3.133331197672582e-05
3.378406936670683e-05
3.570353957566464e-05
3.703102019537366e-05
3.772612941319783e-05
3.781310134746537e-05
3.735171763351353e-05
3.645100764247164e-05
3.536854764998017e-05
3.427835650827258e-05
3.342995869958601e-05
3.429869372341244e-05
3.876726846112659e-05
4.683646213466018e-05
0.0001764757335048071
0.0001726278723531405
0.000167288334175061
0.0001576256443670154
0.000147832780016058
0.0001462273301295387
0.0001664122691491377
0.0001431122455632524
0.000142664921322862
0.0001644862961283161
0.0002139758087935128
4.449737376312933e-13
6.386279999273112e-13
6.904019803047165e-12
5.847078730908759e-11
3.388320905306073e-10
1.593369406160273e-09
7.033792132842124e-09
2.881108861391596e-08
1.002323660951204e-07
2.707538552890488e-07
5.600187807132474e-07
9.300223750838482e-07
1.31592738063039e-06
1.651273179271596e-06
1.916876378933306e-06
2.139755094227775e-06
2.310915084514818e-06
2.334931582251752e-06
2.121160224598345e-06
2.47042648000657e-06
4.493028054723437e-06
8.050088987008167e-06
1.219945075169062e-05
1.64120157554106e-05
2.04861218580174e-05
2.442746293374726e-05
2.817899409813067e-05
3.164151243653956e-05
3.471090206720554e-05
3.729029199483806e-05
3.927683279532683e-05
4.061592211279233e-05
4.126213111313429e-05
4.125154787483545e-05
4.065177548696072e-05
3.962175857590294e-05
3.852632340416689e-05
3.771431658194055e-05
3.767673442663275e-05
3.989720310722324e-05
4.589812607329621e-05
5.529744702498265e-05
0.000176221362658885
0.0001716998222621121
0.0001662279845554918
0.0001573308752155412
0.0001483038443732491
0.000147182449426909
0.0001676155238685395
0.0002150260866596648
0.0001417133725998412
0.0001417299762475343
0.0001637618756372581
0.0002132998664054314
0.000278275374194821
8.577631334775854e-13
1.357848739846115e-12
1.097172432888662e-11
6.399141655442774e-11
3.274049889328171e-10
1.383124015397179e-09
5.215744923997664e-09
1.924376810983558e-08
6.71977623400171e-08
2.002822989114953e-07
4.676952852959444e-07
8.618273632413156e-07
1.321106080995824e-06
1.771787425561983e-06
2.145046489548953e-06
2.427097528193317e-06
2.652056215774902e-06
2.806436744874979e-06
2.771542545673227e-06
2.492102957895047e-06
2.96352627137373e-06
5.386417247794089e-06
9.423131636295608e-06
1.40156333300188e-05
1.862001387355888e-05
2.305443782618541e-05
2.732915531063582e-05
3.137470494131134e-05
3.508657464340391e-05
3.835003309364178e-05
4.106037463221626e-05
4.31175455772738e-05
4.445986822751584e-05
4.504118398630654e-05
4.492374961440707e-05
4.417813749289516e-05
4.304381531094305e-05
4.201377567235613e-05
4.165906335655501e-05
4.271560676745867e-05
4.664181992365701e-05
5.440688040266463e-05
6.552336305291221e-05
0.0001818958736476946
0.000175941526260409
0.0001708447231183372
0.0001652285639279324
0.0001570082921328695
0.000148724503830819
0.0001481726255114028
0.0001689852116488785
0.0002162530925551348
0.0002784772890466517
0.0001407732456658544
0.0001631972999631844
0.0002128987511815068
0.000278387241433646
0.0003097877544279605
6.361567556994278e-13
3.416312587790808e-12
2.461234480042087e-11
1.016691578668404e-10
3.579816903677007e-10
1.33520195026851e-09
4.536671641038453e-09
1.439734747647907e-08
4.540728827594138e-08
1.371317303956437e-07
3.553508483626341e-07
7.345584804761683e-07
1.237535619561661e-06
1.785071220394857e-06
2.297514144983067e-06
2.704346387927087e-06
2.997192559616107e-06
3.216439884058383e-06
3.341946684979876e-06
3.23056274594015e-06
2.888733509805169e-06
3.52368408781292e-06
6.395481222955913e-06
1.093927746042465e-05
1.599640873203483e-05
2.102140097871672e-05
2.583936285996678e-05
3.046557153471647e-05
3.48266178981386e-05
3.880359878519923e-05
4.22698351167945e-05
4.512019712752657e-05
4.724341048116182e-05
4.857603879262734e-05
4.908430406921088e-05
4.884865068169776e-05
4.796209339867017e-05
4.6772042574557e-05
4.594210157813814e-05
4.629141854482869e-05
4.879881972754395e-05
5.473386975320449e-05
6.459207090422259e-05
7.831264423113323e-05
9.664992709202803e-05
0.0001884673059672616
0.0001822526916695274
0.0001756906485626903
0.0001700700117796032
0.0001643124991672669
0.000156691637151533
0.0001491181143748153
0.0001492152217785435
0.0001705291992266596
0.0002177232847156812
0.0002750914785834522
0.000304716752432992
0.0001397897154312118
0.0001627887243603628
0.0002128325464905425
0.0002787650271745664
0.0003167464037946431
0.0003545372366597255
2.272549775301018e-13
1.010486275533308e-11
6.741534483799237e-11
2.284979080207231e-10
5.673169624463966e-10
1.457297927990094e-09
4.374567621350068e-09
1.258221290242619e-08
3.440959502536687e-08
9.414323562269727e-08
2.49790286868916e-07
5.731863088630436e-07
1.073810820623099e-06
1.688000953843541e-06
2.322882111103007e-06
2.894310591080675e-06
3.330256349214445e-06
3.627531887400884e-06
3.831901976271107e-06
3.913998325271643e-06
3.70770977499807e-06
3.312848909935955e-06
4.159679730316856e-06
7.528882006363155e-06
1.260677016238368e-05
1.815856807018126e-05
2.362802065012988e-05
2.885005932430834e-05
3.38552436949778e-05
3.855513736278389e-05
4.281359400336599e-05
4.649876269520482e-05
4.948974068246776e-05
5.166840177897341e-05
5.298771087032215e-05
5.341115739157402e-05
5.305098998257118e-05
5.204929817472507e-05
5.089826995159986e-05
5.0479129847348e-05
5.188894670658012e-05
5.625208153471734e-05
6.456229593204109e-05
7.725799955473802e-05
9.490883950011209e-05
0.0001186784948453858
0.0001450575456654612
0.0001685248844943355
0.0001845030173692588
0.0001907711043459013
0.0001889391420274132
0.0001825414324726838
0.0001754920443396025
0.0001693943799280691
0.0001634941121990711
0.0001563927944175429
0.0001495113996474551
0.0001503264556539517
0.0001722561227159848
0.0002194281643032228
0.0002689560763585024
0.0003005743985480604
0.0003532981156173791
0.0001387866121748073
0.000162536293643587
0.0002131001371369257
0.0002795080229691513
0.000326403232368762
0.0003585075014858982
0.0003598500686217326
2.663840325845114e-12
2.751367192027439e-11
2.39263805363313e-10
6.284755869293726e-10
1.272945082529595e-09
2.299047605339711e-09
4.759861974359953e-09
1.212249637488657e-08
3.031127290173632e-08
7.244160016624131e-08
1.748077250851093e-07
4.144917165095216e-07
8.584226428626158e-07
1.487256537044201e-06
2.214769040974366e-06
2.936330081834746e-06
3.564006889036232e-06
4.024200057043492e-06
4.318451515643499e-06
4.496933341680792e-06
4.518258540653863e-06
4.198921248264289e-06
3.767696820542492e-06
4.881661707761421e-06
8.795766110914865e-06
1.44408381500268e-05
2.05126520503798e-05
2.644791010763003e-05
3.210419426238987e-05
3.751904713267382e-05
4.258273490413782e-05
4.714731769189634e-05
5.105920104241533e-05
5.418434535330435e-05
5.641972765949378e-05
5.771531580876278e-05
5.804378668816712e-05
5.756889890673958e-05
5.651091809639271e-05
5.556203739139121e-05
5.588625445476778e-05
5.883049854632771e-05
6.555211553843315e-05
7.693679543856596e-05
9.365727448519406e-05
0.00011669659952077
0.0001431827483933193
0.0001671587706235588
0.0001839100958378294
0.0001908929526603433
0.0001893181388959306
0.0001828211162105077
0.0001753731825404624
0.0001688402260701586
0.0001627925840641411
0.0001561397212651542
0.0001499349413176329
0.0001515230557569582
0.0001741721873485446
0.0002213522727901212
0.0002637152348738645
0.0002970346504516133
0.0003530025380738765
0.000354779888690944
0.0001377645588387646
0.0001624459875642764
0.0002137050953575166
0.0002806404125145319
0.0003376101240164313
0.0003636771387527098
0.0003650532881211613
0.000316024863482551
7.676942158392977e-12
5.688942284538567e-11
6.797578867169393e-10
2.24351099017908e-09
3.508730031856584e-09
5.144402008469116e-09
7.457531582423169e-09
1.313118226658143e-08
2.921050518444153e-08
6.448808257234032e-08
1.366493084780959e-07
2.964064122328193e-07
6.38055848607327e-07
1.214111983056791e-06
1.976981993694411e-06
2.82011966762899e-06
3.627820884257642e-06
4.308799740356428e-06
4.787654336443828e-06
5.069944120607617e-06
5.209202216869726e-06
5.149340504343155e-06
4.700696960001166e-06
4.258240103032061e-06
5.701118678076243e-06
1.021054071390178e-05
1.645110021528857e-05
2.306586307981558e-05
2.949703754106765e-05