/*--------------------------------*- C++ -*----------------------------------*\
| =========                 |                                                 |
| \\      /  F ield         | OpenFOAM: The Open Source CFD Toolbox           |
|  \\    /   O peration     | Version:  2006                                  |
|   \\  /    A nd           | Website:  www.openfoam.com                      |
|    \\/     M anipulation  |                                                 |
\*---------------------------------------------------------------------------*/
FoamFile
{
    version     2.0;
    format      ascii;
    class       volScalarField;
    location    "518";
    object      omega;
}
// * * * * * * * * * * * * * * * * * * * * * * * * * * * * * * * * * * * * * //

dimensions      [0 0 -1 0 0 0 0];


internalField   nonuniform List<scalar> 
28642
(
919160.0158834886
1097816.943155885
142669.2006695536
1148602.004459611
173096.4341402845
43602.93691269577
1142111.234413707
188754.3649465455
54666.71242795476
18359.28554259014
1149145.173959709
187579.7330956785
59420.05252315252
23738.75458727051
9284.302221575354
1146382.759536125
188875.4685320979
59011.83070706574
25879.9570793361
12340.32209145417
5276.585638031343
1146338.715388094
188364.9047927837
59477.41173152873
25690.54520072583
13528.52893965789
7184.133357248119
3253.754976748844
1146320.881730319
188355.2518026379
59290.7329116143
25912.32121442604
13425.89538318962
7929.552636627622
4521.870885186744
2131.643480614377
1146335.488857771
188352.8690975294
59286.33546625369
25818.40812535367
13544.82549726102
7868.245758100745
5029.149056683301
3015.009986897951
1460.907029028903
1146349.375182594
188356.6155708059
59286.93337413008
25815.47384408666
13487.30888022461
7933.00940943834
4990.420686439158
3382.351579137176
2100.474573466836
1032.970416047531
1146333.041569996
188359.7513955023
59289.15611955694
25816.03830497844
13483.46588798293
7891.384153784211
5022.025979921948
3358.194307521925
2381.30781056861
1511.521029246428
744.8218327557469
1146321.369799953
188356.8560117682
59289.716185718
25815.04948488008
13480.09218877431
7883.436597996192
4986.328587105496
3367.487228816083
2368.898449539012
1737.099267698188
1111.218273303976
544.4146021164755
1146340.590528385
188354.5866130555
59286.99114153296
25810.27197417571
13471.43759656932
7871.277142516701
4970.230583758084
3331.633228957613
2362.683872378479
1736.180606296651
1299.670915029666
826.6965816656646
403.8456636342525
1146348.448430928
188358.9391821218
59284.27613657035
25801.89209614864
13456.7533083649
7851.481872139994
4946.207976707586
3303.757063155064
2322.555425917277
1719.720845042233
1310.718064722657
987.1875736627768
619.10834880609
305.5598824671368
1146328.40096962
188361.7117257594
59285.88154260579
25793.42194531942
13438.18477922158
7826.599807727009
4918.781306930719
3271.312295421654
2282.351289442523
1673.105345485191
1288.734069903821
1009.852816199052
755.0097676543312
466.9860578417624
236.8445659984013
1146323.67551243
188361.1670207718
59289.43857033262
25790.3305414968
13420.65779516816
7801.098818509876
4894.415928681253
3250.223854492938
2253.627102854296
1625.728856909295
1236.146615743945
986.7149799933869
787.1726058099031
579.325106316829
356.4963388424696
188.3392809497686
1146345.124279822
188365.3977596157
59296.79867065018
25793.35394822477
13411.23721137441
7780.848312629054
4877.465741111925
3244.218608860744
2254.732326849881
1614.934061179606
1191.57838023073
931.9013538826474
766.5925642919764
617.2556576325039
446.7406324697209
276.9686529972952
153.4675988214832
1146346.322190851
188377.5345113284
59311.78045398243
25807.03776894824
13412.39013840156
7772.409695238572
4871.183413327843
3251.384913280166
2275.923530673576
1642.988437687538
1205.115791353038
899.7901724337154
715.3529226155866
601.7704725015903
486.2628322230395
347.9868652338807
219.7627063385704
127.8196012795492
1146324.791607326
188386.9693687738
59336.89522395784
25835.01107352762
13429.99155114465
7777.0909184291
4877.736047643909
3269.273311268888
2307.922845318858
1686.438776302798
1254.050125504686
934.8083390396747
700.4314784246604
559.3679590600985
476.9014190118833
385.7760096960882
275.2627802531358
178.2261300246774
108.4990667110222
1146327.623393554
188393.7845729986
59365.5238327039
25880.19502969051
13467.64303049865
7798.911076197596
4894.966548827815
3295.365870076705
2345.250001008986
1734.209650388272
1310.278872307658
995.855057254823
750.0787357334108
561.1097803649759
446.0471025736521
382.2096062711742
309.4524881591132
221.8410809458743
147.5599431449019
93.60619572422496
1146348.396794684
188403.7905503977
59396.55121621679
25936.39781089885
13528.79054534383
7839.831313842381
4923.349452427065
3325.62703481933
2384.146939413225
1781.493590211351
1365.061492119886
1057.37422549173
816.4008277378716
618.8851492365058
461.0174145070788
362.8489395271471
310.5506567465554
251.8496576787426
182.3096759178289
124.4530335924968
81.88267649550664
1146342.473379781
188414.175072467
59426.30443808852
26000.67190858187
13608.0213676694
7903.048545971652
4962.860579304952
3358.78180454889
2421.132772084084
1825.399989465483
1415.408569590578
1113.7058532929
878.708831208175
686.2117423046431
522.2207579573653
386.9822725819187
300.8850861722769
256.280360858729
208.3299930382644
152.6269955846684
106.6667770556301
72.48268876163493
1146322.208133296
188416.3619059914
59448.52343375779
26063.27537207721
13702.63715158596
7985.235920578196
5015.873530899449
3394.212058694125
2454.948332323568
1863.659961849769
1459.585785891939
1163.405560161969
933.7420208080753
746.9284880183252
588.1605429405088
448.6151740650489
330.6687634215894
254.0271019347934
214.933923557271
175.1761802759145
129.9222380028597
92.69091660653514
64.8298499233064
1146331.883345843
188410.8720692105
59456.58843345744
26112.35396668636
13800.83137785716
8086.898769805719
5081.176004915494
3433.696207545062
2485.190214488398
1895.476903448068
1496.293988492302
1205.616139063177
981.085390372237
799.3434496193209
646.1443473789153
511.9318153088691
390.9489845385343
286.7326015073329
217.9315363648506
183.0916981932151
149.5764469138961
112.2061466152282
81.49675401895726
58.52618843070638
1146349.294180796
188405.8009636566
59446.58843304251
26136.30128736234
13887.43287739684
8200.413061870704
5162.161724217005
3477.083560471153
2513.282977438624
1920.730459312681
1525.133274247814
1239.673263486209
1020.465886225756
843.6702003037832
695.4246998611985
566.7120376397432
451.0680343589103
344.6596713862111
251.6732676355522
189.5949668170961
158.2193782002428
129.4841544020147
98.10905620023422
72.37113735525571
1146336.904982596
188395.2506574097
59420.42427779431
26124.75000208626
13944.80495143458
8314.65640314449
5257.535884667105
3528.240004532862
2539.357768047992
1940.586685875892
1546.162422674198
1265.446444260721
1051.618051474268
880.0159212209638
736.5844095024933
612.743781578449
502.5243991231719
401.3735963728576
306.7284055559952
223.1411989745255
166.9419590095456
138.479294732946
113.4382750340336
86.68325611571616
64.81313267334455
1146320.786004859
188375.6929035073
59376.05243915732
26073.44089207457
13952.02178006872
8412.928610574107
5365.291737135517
3588.959137971535
2566.49648916251
1955.16637334391
1560.342544581228
1283.089036651863
1074.588045731867
908.3703191211115
769.9822011804854
650.820320181914
545.3862881887837
449.5624884815441
360.0281044861346
275.0967869185349
199.5239192787018
148.5224548572756
122.5519041846137
100.4018124877641
77.26596433622305
58.53588504216603
1146336.575353539
188361.1906427762
59328.4718085007
25981.37725449736
13891.31997797314
8465.1274631991
5480.44421429304
3663.093812006419
2596.756018910981
1966.650125493386
1567.71883418035
1293.397934258589
1089.574955875664
928.8975024370712
795.7776592590288
681.4717309436159
580.5612399038921
489.4184768019621
405.0897620140047
325.0768986570699
248.322099997398
179.7080082751368
133.308841680978
109.4903539840756
89.6367697422522
69.51768010942156
53.20426992257788
1146349.174570035
188360.2056193881
59300.47242388773
25886.82741587226
13753.13479220851
8431.276478295913
5578.672865987405
3757.737897792288
2635.008812987055
1976.498161992812
1569.785795485692
1296.346369696666
1097.243540984837
941.8166825824452
814.2165222825626
704.9766203265083
608.7001080679418
521.9046240456013
442.1343740457983
367.186176958049
295.1280882959903
225.3675564448303
162.8647581691493
120.5615124185341
98.61173741235157
80.7345902671901
62.96555377492759
48.57833926754139
1146331.753017189
188360.7169068746
59292.24494663632
25834.57164133403
13596.84961432088
8273.173497691494
5604.909367875151
3868.048514460501
2692.749696649046
1988.609825282233
1567.413727735203
1292.95699622614
1097.511338697116
947.6850168528603
825.5251831868828
721.6392710037881
630.1692786229697
547.7597557215124
472.1439970368581
401.6172878169137
334.4686719102523
269.1663520620918
205.4814541700336
148.3860126801572
109.7398246504522
89.49248261148851
73.19389764427606
57.30251867027756
44.5358788008985
1146321.532929406
188355.3818894909
59289.01802495221
25817.41365628143
13507.06648339379
8053.320482451398
5472.297464533245
3951.641230355863
2780.91419674798
2013.63245419156
1563.326384840696
1283.691802589665
1091.081600752939
946.379749371343
830.1724711033215
731.6872022021927
645.3166182065385
567.418465267541
495.9236846310782
429.3479845009135
366.47457307915
305.9176502694585
246.4437239039038
188.0981916876057
135.8165628175808
100.4766354043189
81.70525365431664
66.68037452887361
52.36410034756218
40.98734863296583
1146341.459460572
188351.0936024577
59283.72245240716
25810.38986868213
13476.98796976696
7913.048313089529
5207.375161106356
3882.47153111784
2887.519636912301
2068.179502579982
1565.853347155924
1270.391447296146
1078.163406086719
938.3838916106878
828.0070107152014
735.5163502893844
654.3684169984239
581.2621707998528
513.9635294951544
451.2347618779208
392.1037986712601
335.6716243822864
280.765865545116
226.3905528569119
172.7797331125573
124.8163502907816
92.44221720469884
74.94889502835244
60.99421833035368
48.02842123725537
37.87240027619833
1146347.749561613
188352.8976561624
59278.32446203424
25802.99205202105
13464.93643000098
7865.533285872955
5009.364621925512
3608.479637959018
2887.128321052743
2165.010700807276
1591.158040621744
1259.248072903641
1060.01889423625
923.7565968285895
819.3556895388598
732.9557591235047
657.660753027419
589.5157096136768
526.6717518578461
467.8149252721144
412.2541974129652
359.355663714254
308.424688337204
258.4340601438945
208.5631869780737
159.1675677378978
115.1122920286931
85.40263988387132
69.02050445900856
55.98774012733291
44.20612732458176
35.17447386214462
1146327.080334608
188352.5314995097
59275.40992658281
25794.6733985372
13453.92221169435
7847.330936374368
4941.316559132987
3357.452263806024
2640.603059726975
2211.401633201172
1663.37722979656
1264.026305277732
1041.231846275215
903.398548037938
804.1897803872748
724.2181274130229
655.0100880429251
592.4665320117119
534.2726632955481
479.5188410626372
427.5047732622406
377.9021032924859
330.2997513011123
284.1297016612348
238.4676886060758
192.5757473180769
147.0104087863632
106.5082583199644
79.17766897569713
63.76859680962143
51.55339138677761
40.86036780679259
1146323.964233447
188348.5785587305
59272.78454469071
25787.24279850851
13441.02780751077
7831.791563588092
4917.160984856107
3269.821168304059
2355.540982547964
2012.701852028729
1729.240786261293
1310.729133717515
1033.147750877174
880.7779636230384
783.1859257141332
709.2227080961384
646.5436130700782
589.924523896977
537.0151011109515
486.5718640480955
438.3048709932282
391.9281508934931
347.3534266965274
304.31405831085
262.3137018372996
220.4554652070774
178.1808617314756
136.1213895278352
98.83300295959421
73.62858377447358
59.08203328752545
47.65345097529573
37.91036257434622
1146345.563580888
188349.8958455195
59272.41977961802
25782.25495099574
13427.86469552716
7813.536588827141
4897.954522266542
3242.410828227364
2254.963755919674
1720.788613537204
1581.120161704151
1376.820500483905
1059.247310480393
865.2532781167973
759.0852180440929
688.5040544124267
632.148412653646
581.9517633086625
534.7076112416634
489.1931176385378
444.8826875375871
401.8999038890504
360.2390401201758
319.9680492350182
280.9103009320862
242.5416594033045
204.1444453359442
165.1917265541642
126.3234647211927
91.94961508679778
68.64995736422281
54.91897589636651
44.19018125707255
35.28635348125565
1146344.963206824
188357.8017034167
59278.797776618
25785.10046733644
13419.87427938237
7794.388690826413
4876.097686889411
3223.150569995082
2229.086096699123
1617.306912788289
1306.910233563698
1272.522866101108
1116.072779544575
876.547491317255
739.6207678024421
664.3196063944694
612.2635668375741
568.4139158988622
527.3627005244851
487.1947218469862
447.4355966838335
408.0502000073041
369.4378937222397
331.7802387358308
295.2427309980341
259.6349904519678
224.5494991431967
189.3441874202387
153.4225707291978
117.4714311896812
85.74885788655084
64.19322755140055
51.1859225110647
41.11198722977662
33.00822324877377
1146323.53090213
188362.7171543597
59291.86124745208
25799.85672518186
13426.39434898195
7783.312002223505
4853.758062308169
3202.783364780489
2214.761145593444
1596.869676265848
1208.647035356342
1030.924524133922
1046.23651120887
921.25704039923
740.9453108641427
643.1253225944556
588.8128914302191
549.679329580745
514.830270804046
480.5520301484797
445.7837934678906
410.5616068279403
375.1890397066853
340.2459754607398
306.0349665458078
272.7076506535817
240.2157980265078
208.1486393621213
175.8597073898764
142.7192428968568
109.4450982834247
80.16798071648563
60.17108501031986
47.83619244226276
38.42885075064223
31.08526539075221
1146327.920277956
188362.8115089585
59305.28445800592
25825.01492805167
13452.15719157238
7793.003480303013
4841.171218980078
3183.236346556342
2201.499564056187
1590.178957025866
1194.234019883783
941.2309316168153
842.3712793670167
877.1498122645087
774.057639463877
638.0349036767525
567.2526801963809
527.4294604474312
497.4195840718022
469.1024766155546
439.8760757108091
409.26659725016
377.6661930494855
345.611753981456
313.795521068598
282.520002409168
252.0821097221073
222.4520841428144
193.1381957496104
163.5286823051364
132.9517521020556
102.1591260891898
75.11589376705196
56.54006311687313
44.88162587625393
36.13557275706611
29.56681096924295
1146348.176135381
188365.2203504532
59313.2702478728
25852.0141826532
13494.04291621521
7829.339651403587
4851.841301158805
3172.21374679498
2189.857531846697
1585.81140894429
1194.186609096849
930.9660126826242
761.0437373456963
709.8281302441079
748.5579333463485
661.3393275944227
558.2195599030835
506.3297122462039
476.6241375814115
453.1003084814614
429.5398469487377
404.0966802545867
376.7177850542931
348.0472880512013
318.7790913953654
289.5927674314544
260.9476551563147
233.162069117313
206.1327983447937
179.3491175596729
152.2135516858106
124.0122816310534
95.51898102464875
70.54080239150237
53.30372264534084
42.31396274986655
34.27079288146429
28.5557249383258
26.2618124325203
1146340.735018587
188366.0913786882
59315.22398472597
25869.28613214523
13539.41956365172
7888.588638674893
4893.145949198434
3180.643521068442
2182.542024679728
1582.489852854783
1196.57814595627
934.8865705532337
752.5992207813869
635.3098514236613
613.7445363268456
648.9648449282973
573.7277732996497
495.0320757193501
456.4732907927489
433.8822203557967
414.9745579593246
394.8718849227518
372.2663833715952
347.4200951569438
321.1551524458997
294.1890175994179
267.3445869998656
241.1116112249447
215.7321425839357
191.0830979857646
166.6386603779763
141.7892468503096
115.8053860815963
89.45791538335483
66.42739294586244
50.44636599477393
40.17061731615896
32.91185847027351
22.05827576994053
26.28039082898378
26.37397919256812
31.14419487638119
1146321.372837448
188361.7150288465
59309.71363325998
25871.03206155322
13569.75235289952
7954.656235399008
4963.425917631694
3217.332857692371
2186.474003527718
1578.510561497049
1198.758844347954
940.8836510759088
758.0706838293306
626.8905509390319
544.422259921608
541.9246083568547
570.3596848894431
504.5574397242329
444.0398116618072
414.9565260606148
397.3765071885496
381.7356996934116
364.1279674507422
343.6511968269216
320.8126491531521
296.4805542489544
271.5439356117905
246.8435793275403
222.7939266033661
199.6154959897932
177.1560410301223
154.8706133910621
132.1597790432444
108.2531280148251
83.93487572220438
62.73970428595571
47.99651491119418
38.52966986312276
32.15887876404933
22.2549122295521
26.24364894003184
30.89131724627808
31.50844934668905
31.79958568365653
1146332.753843463
188358.0103100101
59303.39882613649
25859.55083786537
13573.36595070744
8002.150570825208
5046.777508186058
3285.335847500563
2211.028862505173
1577.690563591178
1196.499392680705
945.550467987139
765.2450058204248
632.3051825260843
534.8677046931894
476.5843754129651
486.6462627395985
507.1272448536144
449.0818440851165
402.1447701515682
379.8185390808155
365.751122142558
352.3893372711608
336.5567737305928
317.6775155616826
296.3792897470887
273.721307847163
250.6359556391307
227.8711910694753
205.817256585576
184.6655164011859
164.2075635689736
143.9493819948201
123.2431372069683
101.2896716288885
78.89123768854176
59.48107580581445
46.01844454932574
37.4760124161887
32.10235482069841
20.81875091241324
22.46240431763389
26.22715253133894
30.58640979551806
31.49028667641952
31.89177586190524
32.15924032993354
28.85923394581861
1146349.42000381
188360.100353576
59302.65128040207
25850.1077846393
13556.09780926073
8011.792770282324
5113.363243919788
3374.464948552206
2263.560282445411
1588.9181893601
1191.885160392545
943.6236679283937
770.3635560728374
639.1822403663414
539.2901251951151
465.1998225227916
424.5410688949754
442.8984611813502
455.3101333358001
403.8985343192408
367.1375839120704
349.6185002779555
337.9816057846702
326.1679061120365
311.5711533882526
293.8213705542393
273.8121063849189
252.6685399318526
231.2472995558648
210.2514250486136
190.036305648444
170.7374930045243
152.1414605316272
133.7947275846252
114.9572057672573
94.84091019342422
74.29444625851345
56.68683592218638
44.57274202675517
37.11741663962995
32.95871860111553
20.61961775885352
21.02313400470574
22.66934976864945
26.22377571745337
30.30522046906232
31.14939316978738
28.6636739946224
32.33440378611456
32.52220958500157
29.06465839758571
25.85332356015955
1146336.014870311
188363.4479936679
59304.79660845835
25851.13523130508
13542.5735574396
7990.527140371764
5134.465650272285
3456.108629778619
2342.458106655986
1621.084872186313
1192.772900329993
936.3734971496078
767.9772996574735
643.6270901732429
545.0780239078263
468.1221149799739
410.9309517271096
383.6912151590914
407.3326118044433
412.10107864878
366.5425814493601
337.4113403826415
323.2767849842575
313.2821837750308
302.4724863124368
288.6389676616734
271.7667580668608
252.8997362945492
233.1056726449919
213.204656977464
193.8420183639165
175.3072001642216
157.7404394323373
140.8862322135961
124.3070914790998
107.2167435457749
88.84373267136927
70.1400452217452
54.37895598660596
43.73273343840816
37.52936521401499
34.56109744433348
20.73083146569174
21.22409304112139
22.87007562558573
26.22747190141837
30.04306324504462
30.81833724761524
28.45788147955739
25.81388822857133
32.84282752235902
32.90155256623996
29.26682692715162
25.89755371155794
24.09932568349407
1146321.395077167
188366.0139798612
59309.60364050629
25855.4321907549
13544.86487612495
7972.412113577519
5113.125549902332
3492.614730653941
2427.261748368802
1678.846363756567
1207.49512149368
930.5527578001091
759.0334681768342
640.4348794788946
548.3041341684251
472.4372487655007
412.090301097621
367.6509644370101
351.0139483529512
377.6436008396558
375.4932887101925
335.2046205479824
311.7756870012316
299.9807953089023
291.0429616175917
280.7652957218805
267.4337279874255
251.2968465271403
233.4262555061117
214.8625788610476
196.3700423109155
178.5021940706586
161.5434580710547
145.6046355007484
130.354294805906
115.3977770685545
99.9183702425244
83.23760332790657
66.399815413932
52.5916572661934
43.50227526710434
38.53854571533258
36.30511643268267
20.84948739839173
20.84733907945536
21.41667910933768
23.06169162775857
26.23229866551226
29.79551352425892
30.49618092744637
28.25427312389142
25.77150278185072
24.19210096664622
33.29460356003712
29.46803439990094
25.93928722226251
24.01579341208433
23.74329882873177
1146338.189578213
188383.3864403135
59322.11887594201
25864.48808262447
13552.01944778428
7975.107253435694
5090.837874589244
3476.463839948973
2477.460247166922
1752.577783690355
1243.015215958026
933.2432150845416
749.3002930958468
630.4747685888765
544.211431917512
474.2253334152588
414.7759865972319
366.9183775756823
332.4715361205968
324.451497347053
352.2024898727669
344.0392956667106
308.5370448776969
289.3344201249112
279.1122478164282
270.7234742181667
260.7102213320896
247.7295203507513
232.1943935466954
215.224397293532
197.8061479025118
180.6074283862631
164.1510428963473
148.6854840402206
134.2443873313806
120.4781326405657
106.9965533409167
92.97551019005884
77.89229066712248
62.97551567103088
51.11432486805577
43.59977333985594
39.54025881009348
37.21050481870538
34.80005358000491
21.05930748408573
20.86401856519107
20.96240734917044
21.60059321424838
23.24077530354742
26.23214745026815
29.55841254568853
30.1824570601288
28.05357092076277
25.73185806213921
24.27971809974641
23.96316618962978
33.70284684609943
29.66685084475741
25.97932723902497
23.92869201635472
23.54322124701718
25.30812111730627
1146349.117850122
188408.9415392588
59347.40598415514
25882.2440547045
13564.22232283115
7984.672137947511
5092.69595349819
3451.629384197799
2470.479143222546
1807.758476645342
1297.619074209558
951.3199408457759
744.6325874966734
618.6812073813742
533.703098095617
469.2619109650478
415.0795794152177
367.9392813732987
329.788591417544
303.4416782585296
302.5462381785629
329.8360808202081
316.6835798676951
285.52105259277
269.4031962437598
260.1205842444278
251.9817457087157
242.0712849532802
229.3046633912163
214.2932717897276
198.1658340746505
181.8061522731089
165.842363791248
150.7343866224925
136.6517673524642
123.5989635923534
111.1959110865653
99.03472050513281
86.30890662321202
72.72009714305369
59.68964601399959
49.73889729869826
43.49861537076547
39.64003543585112
36.3092723043769
32.3869954546571
28.40737772070732
25.20308390064992
22.98853261997091
21.68943567279048
21.04850426259415
20.89642465923477
21.07568288890167
21.77432428364909
23.40556208655679
26.22824052201021
29.32697671824857
29.87699155167884
27.85708893914591
25.69551946455812
24.37271779157478
24.18270363386497
25.75097510183674
34.12345546083125
29.86189449426905
26.01653814356515
23.84265568886232
23.34532013332167
24.90280538188233
30.1279859972545
1146332.536065636
188483.3725764009
59368.24308353219
25892.37233352848
13574.77082429662
7995.398036822611
5103.028375259885
3451.330691746095
2445.476895039966
1809.713301996535
1347.361668880018
986.8045862398895
751.0032146162699
609.8913833649661
521.010538902093
458.5248956149465
409.3286286251749
366.7994855033814
329.1722663326184
298.7867465349889
279.2044047776537
284.2215107576395
309.6926181024065
292.6452916480062
265.3751797490449
251.3970659300586
242.6550638213287
234.5748536752287
224.6208226331672
211.990920442311
197.4686538726249
182.1266879017464
166.7951871949799
152.027878733293
138.1784905873022
125.388732764557
113.6161098212182
102.441009615913
91.43609987961544
79.85137201110393
67.64164799626691
56.41444028659738
48.08089618177217
42.4828098959818
38.03473827396068
33.44773358996931
29.01201439986594
25.52101572562087
23.12363968554807
21.72061034681411
21.06473075976495
20.94231303069261
21.18624295517029
21.93628121957676
23.55425866111183
26.21754840681093
29.09630048594217
29.57958910984257
27.66611237508722
25.66314384465872
24.47180602017409
24.41595930190168
26.22003259486689
31.02090447338248
34.55846021751024
30.0516243373895
26.04994791389417
23.75761934695283
23.15801455480735
24.52155208198903
29.2966309715719
39.30081463190581
1146327.395064099
188689.281860348
59637.96993597129
25931.88868621639
13544.62931410307
7981.114828039948
5104.930089179862
3459.890578355816
2442.06421294184
1786.444307869802
1354.026341942952
1025.108099508925
771.5470075109234
609.0883893189904
510.1550378511616
445.6462430397136
398.5791413575392
360.3609609908399
326.6713517239707
296.5909970624912
272.5762906333528
258.7882024604956
268.6462062274768
291.1580769530758
271.3353163179265
247.4368664612296
234.9393115469449
226.4630493038149
218.2722703796044
208.1854987818281
195.663932189547
181.6025842057709
167.0468998328446
152.7344973517805
139.0949662326072
126.4371409113882
114.8532947852313
104.2347002096705
94.14727677868672
84.12962030987974
73.51365167386908
62.57532797663132
52.92090553931546
45.63820914781262
39.9531431371956
34.62344582460666
29.6906845391391
25.89465596341309
23.30447555822286
21.79086347383479
21.10337124699269
20.99812703310213
21.29317687049639
22.08527027965841
23.68525201859082
26.19824016191235
28.86583209239322
29.2896444749224
27.48199176926962
25.6356050032126
24.57698145319139
24.66478935228849
26.7280262985677
31.98844518319705
40.70741716843349
30.23433549765485
26.07863075124928
23.67362587978552
22.98008559723753
24.16764074521634
28.54010576145966
37.9350344069658
46.96847332562357
1146352.096613921
188980.4663258996
60325.77883101076
26630.88329914334
13719.89454990109
7912.886382371028
5051.752377948139
3445.651322361382
2446.358370415421
1779.642393867287
1333.034337074677
1031.695672859183
797.7379299133717
619.3918745587561
505.2553024827384
433.9857558265775
385.9449452666991
349.7424211146248
319.6436969353526
292.8275194761441
268.8710802387648
250.2006650019808
241.4756588719847
255.1503926100029
273.8015768863822
252.2395565606111
231.2733367030427
219.7510052184073
211.3089909411283
202.8977106540966
192.637173721603
180.2095760078981
166.6420062849225
152.8962746488826
139.5619757865214
127.0059462153532
115.4756044083452
104.9906844595434
95.40031019938766
86.24969803333937
77.02527548444684
67.21978363100408
57.40030386049264
48.89863170265475
42.00833535767939
35.89292319423712
30.43816082469605
26.32085533727818
23.52667813066447
21.89376952081367
21.16094405574428
21.06133370228689
21.39583633034577
22.22104105318441
23.79783958531646
26.16889955990754
28.63561543119865
29.00690451041772
27.3055351171981
25.61361733325915
24.68920221182276
24.93030476672193
27.27984244780455
33.03684339365032
42.18457720003278
47.87659778943978
30.40943985352486
26.10160862092743
23.59048728877168
22.80903308245684
23.83855459997361
27.84420252122988
36.66758400088347
45.96811611977135
43.04381578126515
1146360.802187513
189281.0654184456
61155.30088833335
27960.91921142342
14978.86559865091
8382.914536892069
4998.214122149964
3356.76165678112
2413.684515185475
1778.559735454544
1323.274103678958
1012.563000437276
801.541331366817
635.6598566204067
509.0543567725883
426.9473177171869
374.2366351341504
337.6050026300302
309.2470669139067
285.2990548923121
263.9465476059989
245.0582181107512
230.9594561159119
226.7173894633203
243.173797062946
257.2870945495326
235.0539411224162
216.5465200314998
205.5773484118027
197.0120401724546
188.3198133586347
177.860869224454
165.579997743006
152.565298004472
139.6213597968389
127.2464219720091
115.7340173616322
105.2453467237955
95.75695074402033
87.05834617130115
78.66809023523207
70.04214280115004
60.89181587158649
51.94627476908931
44.10346136302203
37.2281902065766
31.24933059971369
26.79834064769047
23.7883099144344
22.02582625871643
21.23529125318914
21.13048015850104
21.49378434580463
22.34358020234427
23.89202059061362
26.12864766137288
28.40585921626827
28.73153059852146
27.13782873518109
25.59706332248123
24.80996279006061
25.21593002824477
27.8820326208893
34.17398693814295
43.71604411259376
48.71583342138543
42.83284765511849
30.5727064026692
26.11747191167414
23.5076078165903
22.64346625903135
23.53119068612911
27.20440604409233
35.46995467239996
44.9532759223468
43.1571243049255
31.33283392174494
1146343.15481976
189546.3567608573
61916.75456921507
29288.64032220159
16696.63241775136
10032.80304623294
5827.2507640839
3402.324998081619
2316.933503664207
1734.047032812032
1317.749120638669
1000.774743298431
783.7664745407866
636.1493716882134
518.2002784146985
426.8349105768415
366.2684901987423
326.2926887319534
297.7444934835614
275.1766036561373
255.9919078673644
239.0700888464862
224.4492429971125
214.3281513156447
214.0732533570391
232.202473812208
241.4923856402894
219.5164410770865
202.9528728614225
192.2206454851688
183.4361597210239
174.4215286386491
163.8084918078274
151.7611062413896
139.3285802971646
127.1994402885509
115.7690673555786
105.2367497297501
95.7108642271842
87.10742533635062
79.14341150736773
71.32383331478076
63.10558985156539
54.43385448439444
46.09658258482664
38.58900816380071
32.11888638077913
27.32781692035669
24.08981244461941
22.18608404400872
21.32572299795985
21.20503024508037
21.58697369452401
22.45303431163209
23.96798878478958
26.07707689373731
28.17667288177167
28.46393617043737
26.97987477911727
25.58657507968076
24.93945700012534
25.5276142472414
28.5412302501646
35.40745676683171
45.29434900845227
49.46812269864865
42.5405490735217
30.59991518858137
30.72195570642681
26.12475744425056
23.42484332130742
22.48354219182745
23.246960651794
26.61606895577396
34.34203294618907
43.90087126839191
43.20617971067459
32.01915051934402
18.97541472145118
1146344.570188926
189760.971193967
62550.06707688086
30376.63585796009
18116.70490505091
11713.01825527955
7562.400139971282
4507.788645707444
2515.555918584636
1667.58858818517
1274.212501367102
993.0822957909277
771.0598481857608
619.52094929839
515.9830489746146
431.2471096312585
363.9383006750004
318.1269452758993
287.076600931459
264.3723170542871
246.1668288781907
230.74931917466