/*--------------------------------*- C++ -*----------------------------------*\
| =========                 |                                                 |
| \\      /  F ield         | OpenFOAM: The Open Source CFD Toolbox           |
|  \\    /   O peration     | Version:  2006                                  |
|   \\  /    A nd           | Website:  www.openfoam.com                      |
|    \\/     M anipulation  |                                                 |
\*---------------------------------------------------------------------------*/
FoamFile
{
    version     2.0;
    format      ascii;
    class       volScalarField;
    location    "518";
    object      p;
}
// * * * * * * * * * * * * * * * * * * * * * * * * * * * * * * * * * * * * * //

dimensions      [0 2 -2 0 0 0 0];


internalField   nonuniform List<scalar> 
28642
(
0.2840883678931187
0.2835726918216225
0.2840889733446588
0.2833332558582701
0.2835730130275579
0.2840889344142833
0.2834398309576967
0.2833333139542855
0.2835730569357855
0.2840886520080435
0.283558611322741
0.2834398482362858
0.2833334068491428
0.2835729992217097
0.2840883215039731
0.2837379661336829
0.2835586307458475
0.2834398873046593
0.2833335235713352
0.2835729623491829
0.2840878995898241
0.2838315300340731
0.2837379378814233
0.2835586506188389
0.2834399368016338
0.2833336712933048
0.2835729611337339
0.2840873052970329
0.2838698260943924
0.2838314811739387
0.2837379049636009
0.2835586765066618
0.2834399968663581
0.2833338662919361
0.2835730008462974
0.2840864521700618
0.2838792253477237
0.2838697803229216
0.2838314243544476
0.2837378769436968
0.2835587153465499
0.2834400757531665
0.2833341307978051
0.2835731000713784
0.2840852287285126
0.2838954153395796
0.2838791898140829
0.2838697289007108
0.2838313737539564
0.2837378581368588
0.2835587749487551
0.2834401856083988
0.2833344949453651
0.2835732834882417
0.2840834930135616
0.2839541449051536
0.2838953858202513
0.283879152571189
0.2838696875760546
0.2838313345123862
0.2837378553036365
0.2835588667380378
0.283440343688679
0.2833349996447407
0.283573572472465
0.284081087599049
0.2841030037854868
0.2839541143234853
0.2838953572236939
0.2838791298518847
0.2838696640662838
0.2838313149048636
0.2837378803362456
0.2835590080863589
0.2834405757473417
0.2833356975356787
0.2835739774749573
0.2840778590657723
0.2843927035999635
0.2841029625262698
0.2839540858107974
0.2838953468454025
0.2838791322738143
0.2838696690358455
0.2838313292392374
0.2837379530280155
0.2835592256976975
0.2834409189563569
0.2833366505627625
0.2835744930828702
0.2840736661862164
0.2848575035714919
0.284392656104981
0.2841029265487729
0.2839540790300682
0.2838953678851244
0.2838791745068827
0.2838697176517221
0.2838313980126715
0.2837381045624668
0.2835595594655902
0.283441423451134
0.2833379226275404
0.2835750967421729
0.2840683779628544
0.2855117346170019
0.2848574374319668
0.2843926093420546
0.2841029183709686
0.283954107861549
0.2838954378845523
0.2838792766882476
0.2838698287362415
0.2838315464463215
0.2837383777089655
0.283560065110641
0.2834421499413209
0.2833395702475079
0.2835757487522537
0.2840618719943063
0.286330975382871
0.2855116535074417
0.284857376872352
0.2843925923946959
0.2841029460820062
0.2839541853690537
0.2838955768828002
0.2838794595813858
0.2838700228432428
0.2838318045305117
0.2837388238805162
0.2835608120190758
0.2834431639559098
0.2833416348638354
0.2835763951522783
0.2840540318674558
0.2872767111225048
0.2863308792669699
0.2855115826972056
0.2848573568866334
0.2843926116472288
0.2841030071389837
0.2839543156851632
0.2838957951862607
0.2838797345203966
0.2838703224194926
0.2838322157714988
0.2837395019655278
0.2835618769393811
0.2834445282485369
0.2833441410178681
0.2835769733324002
0.2840447404053975
0.2882723746390307
0.2872766209038066
0.2863308060976092
0.2855115660139984
0.284857371423019
0.2843926348875842
0.2841030692972824
0.2839544785902178
0.2838960837243384
0.2838801025916079
0.2838707533760382
0.283832842196067
0.2837404800797832
0.2835633360728669
0.2834462978090265
0.2833470990226319
0.2835774192315547
0.2840338686371096
0.2892542122011226
0.2882722849797247
0.2872765575554529
0.2863308103745304
0.2855115897683215
0.284857353049605
0.2843925775090336
0.2841030621839548
0.2839546340837135
0.2838964270024777
0.283880564390437
0.2838713403539413
0.2838337520715346
0.2837418319090872
0.2835652594760758
0.2834485174353159
0.2833505109273682
0.2835776698420449
0.2840212666530699
0.2901378596624776
0.2892541477311971
0.2882722444293921
0.2872765938586702
0.2863308744844635
0.2855115524629078
0.2848571550349521
0.284392307157029
0.2841029078345429
0.283954751807382
0.283896818913075
0.2838811249277308
0.2838721023173637
0.2838349994427273
0.2837436267938059
0.2835677071055877
0.2834512221569201
0.2833543756025165
0.2835776615060204
0.284006755127353
0.2908800626004792
0.2901378271002606
0.2892541453884928
0.2882723427274211
0.2872767329028798
0.286330875558727
0.2855112490812283
0.284856578843266
0.284391705092908
0.2841025617365459
0.283954823155982
0.2838972626022724
0.2838817937436741
0.2838730551191262
0.2838366188167381
0.2837459198454211
0.2835707274179294
0.283454437537524
0.2833586933915053
0.2835773237750556
0.2839901211661144
0.2914529979188712
0.2908800780635667
0.2901378775320958
0.2892543147276946
0.2882726044324226
0.2872768503394702
0.2863305657727206
0.2855104215913581
0.2848554697919836
0.2843907200102636
0.2841020164421424
0.2839548508106884
0.2838977664177634
0.2838825846141657
0.2838742171087907
0.2838386315566212
0.2837487495853514
0.2835743566887414
0.283458182326619
0.2833634671571602
0.2835765753737631
0.2839711300447667
0.2918122040483048
0.2914530703867889
0.290880191079423
0.2901381324707264
0.289254724233436
0.2882729324928895
0.2872766836628153
0.286329641654364
0.2855088831100137
0.2848537686488916
0.2843893429043941
0.2841012725856943
0.2839548417354257
0.2838983423668297
0.2838835164034587
0.2838756117049992
0.2838410566387822
0.2837521404603704
0.2835786212865339
0.2834624710724372
0.283368702818216
0.2835753184826345
0.283949584013434
0.2920396851243891
0.2918123505712124
0.2914532491634715
0.2908805246990559
0.2901387030584113
0.2892553300016347
0.2882730822539886
0.2872759062744666
0.2863278882752425
0.2855065665679951
0.2848514689473227
0.2843875779891641
0.2841003370089185
0.2839548050455574
0.2838990069981427
0.2838846131027415
0.2838772684382327
0.2838439147142178
0.2837561090336504
0.2835835403260654
0.2834673189192058
0.283374406434677
0.2835734218053484
0.2839252529382488
0.2922223739092304
0.2920399193236014
0.2918126070636547
0.2914536416133665
0.2908812277439601
0.290139620460578
0.2892559437491772
0.2882727316001584
0.2872742766844977
0.2863252240906297
0.2855034633413571
0.2848485695102961
0.2843854216917986
0.2840992111950179
0.2839547540665622
0.2838997813864806
0.2838859044875197
0.2838792223689888
0.2838472315703322
0.2837606685323777
0.2835891305158896
0.2834727433648143
0.2833805816711233
0.2835706780469205
0.2927722439873119
0.2922226661702508
0.2920402620026756
0.2918130448247551
0.29145441385631
0.2908824104946052
0.2901407854746831
0.2892562840936271
0.288271624452796
0.2872716975181542
0.2863216354724877
0.2854995660800289
0.2848450619789404
0.2843828748026372
0.2840979063977984
0.2839547054819233
0.2839006920253268
0.2838874258548377
0.2838815144614982
0.2838510360838289
0.2837658325927556
0.2835954083587185
0.2834787664433677
0.2833872269883113
0.2835669255418969
0.2928040172638812
0.2927724384911666
0.292223050791324
0.2920407326781974
0.2918138183586305
0.2914557384837964
0.2908840823739042
0.2901419959004125
0.2892560959272425
0.2882696365591182
0.2872681382001244
0.2863171034882457
0.2854948566199311
0.2848409334648228
0.2843799315078692
0.2840964286905926
0.2839546814441941
0.283901770499202
0.2838892187881159
0.2838841908481269
0.2838553608445534
0.2837716146966042
0.2836023931089867
0.283485419070054
0.2833943504561789
0.2835624206217716
0.2920185590267145
0.2928041021668947
0.2927726805653917
0.2922235148482552
0.2920414477116646
0.2918151252408732
0.2914577321507014
0.2908861508081768
0.2901430293697772
0.2892552331135981
0.2882667234969038
0.2872635759141203
0.2863116024162154
0.2854893091025153
0.2848361700965624
0.2843765962684119
0.2840947974040429
0.2839547080396591
0.2839030545284777
0.2838913307850475
0.2838873032098354
0.2838602378670868
0.2837780295950217
0.2836101140335976
0.2834927744828117
0.2834018919286586
0.2835569288739737
0.2911882917830314
0.2920186290181238
0.2928042104027492
0.2927729632050524
0.2922241230707671
0.2920425806524152
0.2918171652641852
0.2914604269203451
0.2908884640377132
0.29014372779701
0.2892536284864617
0.2882628473275388
0.2872579660732844
0.2863050879394686
0.2854828952746171
0.2848307584070758
0.2843728672644279
0.2840930260361611
0.2839548178804788
0.2839045874795125
0.283893815980698
0.2838909070248284
0.2838657010371121
0.2837851002749456
0.2836186504881502
0.2835008440116674
0.28340966091535
0.2835499437453625
0.2904891834574826
0.2911883468573956
0.2920187178004675
0.2928043363009111
0.2927733137646564
0.2922249851255292
0.2920443560023734
0.2918200967056879
0.2914637754760607
0.2908908798680787
0.2901440063956827
0.2892512380000395
0.2882579605679242
0.2872512603276375
0.2862975212676991
0.2854755847047112
0.2848246866422317
0.2843687563566885
0.2840911440680912
0.2839550479832558
0.2839064194608414
0.2838967341104365
0.2838950612578046
0.2838717918688581
0.2837928870521814
0.2836280440967598
0.2835091909187851
0.2834178539858228
0.2835411881690936
0.289908910825559
0.2904892121037131
0.2911884129795544
0.2920188151018659
0.2928044910692477
0.292773779227261
0.2922262737470095
0.2920470205807555
0.2918240071253551
0.2914676879365154
0.2908933072448829
0.2901438132281413
0.2892480053513992
0.288251997214146
0.2872433931126483
0.2862888480201111
0.2854673478782211
0.2848179454955586
0.2843642690018209
0.2840891745985968
0.2839554426437333
0.2839086062678018
0.283900150502265
0.2838998312691536
0.2838785791876083
0.283801405248817
0.2836378773122516
0.2835183676170023
0.2834264073974485
0.2835305715239593
0.2895030737507229
0.2899089112782234
0.2904892458403768
0.2911884820403726
0.2920189249456958
0.2928046924432566
0.2927744475333854
0.2922282321472889
0.2920507983660642
0.2918289072959681
0.2914720863229777
0.2908956938244901
0.2901430950898511
0.2892438646429036
0.288244887611108
0.2872343039117879
0.2862790250768913
0.285458154976581
0.2848105289985877
0.2843594267518233
0.2840871584440872
0.2839560504239997
0.2839112099034407
0.2839041368366432
0.2839053011270205
0.2838860783923406
0.2838104120250218
0.2836486408741977
0.2835284141951372
0.2834353060308416
0.283518365949802
0.2892926651773071
0.2895030381763442
0.2899089098164809
0.2904892798566572
0.2911885552277333
0.292019056970721
0.2928049818216957
0.2927754814707215
0.2922311453201504
0.2920558512988458
0.2918347670670958
0.2914769254805796
0.2908979971890935
0.2901417877549101
0.2892387331217049
0.2882365466751762
0.2872239152351669
0.2862679931292188
0.2854479790572709
0.2848024349526587
0.2843542445039623
0.2840851292895068
0.2839569268491498
0.2839142980019496
0.2839087796419317
0.2839115362121322
0.283894222436375
0.2838201759720625
0.283660378265263
0.2835393927282764
0.283444601908853
0.2835050095425512
0.2892292798135283
0.2892925931809799
0.2895029920572617
0.2899089067345677
0.2904893145292182
0.2911886393349525
0.2920192399441179
0.292805460971318
0.2927771387786622
0.2922352876843453
0.2920622730322038
0.2918415589837548
0.291482179970396
0.2909001676902981
0.2901398128598296
0.2892325225003075
0.2882268892545945
0.2872121585029653
0.2862557079629678
0.2854367937974038
0.2847936652789496
0.2843487541643602
0.2840831383054663
0.2839581315072998
0.2839179508251945
0.2839141717009195
0.2839185634503516
0.2839031408849211
0.2838307016834098
0.2836731569771538
0.2835514467925513
0.2834543230375902
0.2892167684129568
0.289229181774709
0.2892925028464696
0.2895029425282032
0.2899089007232128
0.2904893541881682
0.2911887559283529
0.2920195485395959
0.2928063323222027
0.2927797496718653
0.2922408836844319
0.2920701123754392
0.2918492745886104
0.2914878250949482
0.290902142824045
0.2901370795517522
0.289225127161799
0.2882158142230965
0.2871989472266034
0.2862421081630268
0.2854245768692969
0.2847842260302541
0.2843429798373237
0.2840812289039734
0.2839597378277444
0.2839222638897836
0.2839203779000046
0.2839264736441363
0.2839128394705987
0.2838420151405179
0.283687125601124
0.2835646635600166
0.2834647481360448
0.2891208347795678
0.2892166601191331
0.2892290614564141
0.2892924087238007
0.2895028851651142
0.2899088894908516
0.2904894108130697
0.2911889555215337
0.2920201259488149
0.2928079075898622
0.2927836494699925
0.292248106681136
0.2920793959749101
0.2918579161514989
0.2914938269167505
0.2909038451226534
0.2901334815217237
0.2892164371495639
0.2882032220989153
0.2871842061189738
0.2862271495652289
0.285411306480142
0.2847741266272141
0.2843369627049303
0.2840794694318943
0.2839618336742861
0.2839273084944789
0.283927477662196
0.2839353117061864
0.2839233403941726
0.283854203164755
0.2837024035865817
0.2835789856951856
0.283476526571267
0.2888063335941721
0.2891207379882159
0.289216531363248
0.289228940222072
0.2892923034688457
0.2895028044693896
0.2899088643784715
0.2904895083036395
0.2911893233285293
0.2920211775024084
0.2928105555277494
0.2927891079422064
0.2922570961768408
0.2920901393647347
0.2918674838340085
0.2915001371305472
0.2909051806662599
0.2901288986207271
0.2892063236002925
0.2881889964844308
0.28716784086485
0.286210769643314
0.2853969644519476
0.2847633807297065
0.2843307440198894
0.284077924456117
0.2839644893640385
0.2839331502653705
0.2839355391766081
0.2839451293063778
0.2839347067577271
0.2838673387090774
0.2837187246697018
0.2835952645872118
0.2834903718077839
0.2882730712887999
0.2888062788915183
0.2891206292133078
0.2892164091609728
0.2892288115542346
0.2892921568622252
0.2895026555918265
0.2899088044798286
0.290489681754918
0.2911899659351525
0.2920229246515924
0.292814599607532
0.2927963026513842
0.2922679638240169
0.2921023501185294
0.2918779653364286
0.2915066904073385
0.290906037155818
0.2901231932625281
0.2891946538033612
0.288173023242513
0.2871497690205233
0.2861929231746358
0.2853815329762782
0.2847520141874847
0.284324372513614
0.2840766596902227
0.2839677627263339
0.2839398553924887
0.283944631485955
0.2839559987126473
0.2839469598573371
0.2838810922524121
0.2837368789457052
0.2836139528565344
0.2835080860762048
0.2877543263745513
0.2882730817376975
0.2888062273079448
0.2891205378944299
0.2892162935713508
0.2892286404075515
0.2892918854323091
0.2895023504073551
0.2899086765253148
0.2904899695915761
0.2911909805536466
0.2920255382913609
0.2928202309781249
0.2928053325459491
0.2922807873300617
0.2921160262745734
0.2918893311199977
0.2915134009621781
0.2909062823113396
0.2901162126252277
0.2891812746276641
0.2881551703126934
0.2871298878646047
0.2861735461842255
0.2853650076133747
0.2847400318254458
0.2843178851880775
0.284075723010683
0.2839717142034861
0.2839474876143664
0.28395483145611
0.2839679521278983
0.2839598802465796
0.2838959899283264
0.2837571328212171
0.283635813162303
0.2835320943540043
0.2874210703363755
0.287754377690591
0.2882731115107431
0.288806203668336
0.2891204749946267
0.2892161598309636
0.2892283256400076
0.2892913334826886
0.289501766722287
0.2899084425582442
0.2904904007147388
0.2911924255560246
0.2920291017651681
0.2928274959778622
0.2928162384662464
0.2922956035699975
0.2921311515877308
0.2919015300439999
0.2915201607068778
0.2909057620859087
0.2901077846606079
0.2891660290702375
0.288135307414578
0.2871081069432447
0.2861526015975748
0.2853473416856088
0.2847274513776927
0.2843113341030186
0.2840751714799577
0.2839763982538349
0.2839561119232081
0.283966193184602
0.2839808962944638
0.2839737663594991
0.2839121843379142
0.2837795747841346
0.2836624567097663
0.2835646059553986
0.2798768504342403
0.2871099182033647
0.2874211020202316
0.2877544542428388
0.2882731750963407
0.2888062295075932
0.2891204375032102
0.2892159211376266
0.2892276750928633
0.2892902947372128
0.2895007823463105
0.2899080715772965
0.2904909865533786
0.2911943182806723
0.2920336262550005
0.2928363396517749
0.2928290151583841
0.2923124055622895
0.292147690122609
0.2919144874942326
0.2915268361340445
0.2909042993515805
0.2900977212580524
0.2891487389779834
0.2881132864390042
0.2870843237206978
0.2861299762558088
0.2853285172918434
0.2847143087202175
0.2843047490189212
0.2840750496053899
0.2839818689763478
0.2839657810452479
0.2839786918252044
0.283994980069192
0.2839886878901247
0.2839294196437361
0.2838052169341519
0.2836950854729983
0.2793374935753313
0.2798539956013922
0.2799158528505853
0.2805733686279804
0.2866266377185547
0.2871099054414508
0.2874211508479256
0.2877545639343421
0.2882732991278776
0.2888063249337416
0.2891203801441673
0.2892153966616037
0.289226431069909
0.2892885731178784
0.2894993143741301
0.2899075458796149
0.2904917259690443
0.2911966553148208
0.2920390880242404
0.2928466531070651
0.2928436179563944
0.2923311414182601
0.2921655816886713
0.2919281016363431
0.2915332667956356
0.2909016928539636
0.2900858148839393
0.2891292233575007
0.2880889675382632
0.2870583787437481
0.2861056119179119
0.2853085468010565
0.2847006162001217
0.2842981716233744
0.2840754114191955
0.283988170613438
0.2839764811266003
0.2839923915250126
0.2840102164675241
0.2840043747298704
0.2839483212937944
0.2838344788618316
0.2837350078017646
0.2793373360226513
0.279842372757244
0.2805809364744088
0.280592160458368
0.2812523786902872
0.2859193577257048
0.286626600828491
0.2871098995714401
0.2874212279644862
0.2877547319318816
0.288273517675138
0.2888064938605615
0.2891201813359024
0.2892143278562355
0.2892243449392097
0.2892860443386415
0.2894973283313825
0.2899068594426821
0.2904926157871844
0.2911994327809811
0.2920454545297535
0.2928583029028903
0.2928599672571848
0.292351713667296
0.2921847388494836
0.2919422420273968
0.2915392624820909
0.290897717146453
0.2900718429362377
0.289107283626281
0.2880621200744067
0.2870301413288149
0.28607947888011
0.2852874092217809
0.2846863912050723
0.2842916359160872
0.2840762954692753
0.283995284622402
0.2839882232853083
0.284007277867483
0.2840264195779847
0.2840212192820626
0.2839691697684637
0.2838676024490819
0.2837831096279322
0.2791581233058347
0.2793496107692329
0.2798541287672103
0.2806142444303875
0.2813833847566232
0.280641237446259
0.2811402875527754
0.2812890018130301
0.2850928451353112
0.285919296034487
0.2866265677840772
0.28710991870332
0.2874213545319698
0.2877549939568905
0.2882738684681309
0.2888066983194273
0.2891196415290337
0.289212447332138
0.2892212534607819
0.2892826606677023
0.2894948186114635
0.2899060141165353
0.2904936582406047
0.2912026562153427
0.2920526956364219
0.2928711459325864
0.2928779507931338
0.2923739787311009
0.292205045060434
0.291956746428463
0.2915446027827373
0.2908921217065507
0.2900555627509902
0.2890826480232057
0.2880325668883146
0.2869995512541991
0.2860515162746933
0.2852650879213213
0.284671655282742
0.2842851743374214
0.2840776953639262
0.284003189986496
0.2840009742066902
0.2840232210472219
0.2840437422105294
0.2840394486789277
0.2839917989046589
0.2839052151841548
0.2838390219185838
0.2794398414362599
0.2792031149752441
0.2793751803362226
0.2798826348426554
0.280676682006718
0.2815376506242148
0.2816360308119024
0.2806972416719365
0.281055011395353
0.2809489254815245
0.2801043156991554
0.2831290446405992
0.2850926827435413
0.2859192375359339
0.2866265606754254
0.2871099816909512
0.2874215612493274
0.2877553977696621
0.288274381670134
0.2888068430699056
0.2891185277774741
0.2892095594555829
0.2892170872582487
0.2892784133610615
0.2894917901806144
0.2899050186472883
0.290494864144041
0.2912063444448254
0.2920607857638128
0.2928850378970339
0.2928974223414121
0.2923977478775225
0.2922263543603424
0.2919714214317538
0.2915490333265877
0.2908846258895099
0.290036659220562
0.2890550741317518
0.288000182338464
0.2869664764482225
0.2860216555367125
0.2852415773230677
0.2846564085029765
0.2842787714835661
0.2840795875514546
0.284011831773422
0.2840146144389055
0.2840402172552902
0.2840622055069684
0.2840587599981549
0.284016957619376
0.2839469110349206
0.2838992644319046
0.2795077233577416
0.2792606286574577
0.2794199899193411
0.2799313588966212
0.2807539279915092
0.281718935609211
0.281993805817508
0.2806733193580113
0.2807754558359375
0.2809866717682322
0.2806212012006335
0.2795298264449396
0.2781002636435312
0.2781504262483611
0.2831287674867295
0.2850925133943662
0.2859192148612867
0.2866265994733466
0.2871101148307019
0.2874218914025036
0.2877560025771814
0.288275064815444
0.2888067888020599
0.2891166406668345
0.2892055643768799
0.2892118252460807
0.2892733031738391
0.2894882526720398
0.2899038893742771
0.2904962545117394
0.2912105306021446
0.2920697039369112
0.292899838676171
0.292918197508436
0.2924227908947869
0.2922484932819533
0.2919860392279679
0.2915522569963797
0.2908748911763763
0.2900148387238775
0.2890243864515484
0.2879647873262123
0.2869308063797373
0.2859898538347829
0.2852168351864622
0.284640625424893
0.2842724155865309
0.2840819171521374
0.2840210546897932
0.2840290388962821
0.2840581431328986
0.2840814563004808
0.2840796746414563
0.2840440873762279
0.2839902368147102
0.2839554877559352
0.2801706369272559
0.2795869838750855
0.2793315690593376
0.2794846088378818
0.2800016148934824
0.2808523664410619
0.2819075588347503
0.2823649365018329
0.2812403816974117
0.278882724237339
0.2809389844689671
0.2802968641716402
0.2789514645568011
0.2773195032564457
0.276380349702593
0.2640350816120626
0.2781502007335245
0.2831284921703151
0.2850924001362466
0.2859192527542139
0.2866267108022927
0.2871103547204144
0.2874224034883445
0.2877568720771657
0.2882758956485571
0.2888063880982898
0.2891138547983598
0.2892004209924722
0.2892054572403883
0.2892673323742177
0.2894842213443891
0.289902652293803
0.2904978619699405
0.2912152633363914
0.2920794327791551
0.2929154164951666
0.2929400474672124
0.2924488444950438
0.2922712604534928
0.2920003238497564
0.2915539406953897
0.2908625783666594
0.2899898598462325
0.2889903452764631
0.2879262023355627
0.2868924291551395
0.2859560077061718
0.2851908189056383
0.2846242872672919
0.2842660530159951
0.2840845320357783
0.28403070889207
0.2840439976431328
0.2840765593854798
0.2841015671659347
0.284101218582079
0.2840713711771728
0.2840276485684372
0.2839906628556673
0.283943002922409
0.2810489445179588
0.2802625440509313
0.2796787061522124
0.2794195859540743
0.2795687690287096
0.2800934556589095
0.2809750038384108
0.2821120926475879
0.2827335454339485
0.281809373380884
0.2796720900132524
0.2773404919604351
0.28090201913031
0.2799773091593863
0.2783654711339419
0.2765342856898271
0.2754115194231033
0.2748904602684395
0.2378852561710388
0.2640354372105994
0.2781500214566349
0.2831283331063212
0.2850923798221643
0.2859193835788582
0.2866269302254706
0.2871107491412578
0.2874231697779435
0.2877580638745172
0.2882768274232091
0.2888055229933276
0.2891101073221322
0.2891941056135833
0.289197972342196
0.2892605064073085
0.2894797197546664
0.2899013447107006
0.2904997329530844
0.2912206070511569
0.292089959443297
0.292931650421932
0.2929626932953663
0.2924756202335739
0.2922944013634137
0.292013987434321
0.291553723300929
0.2908473712685781
0.289961440333286
0.2889527254882106
0.2878842627638215
0.2868511871967631
0.2859200464620968
0.2851634969091552
0.2846073347920368
0.2842595645190763
0.2840872834310366
0.2840405657502876
0.2840590136744187
0.2840950160474838
0.2841211663689778
0.2841212406737106
0.2840917590259495
0.2840436911839337
0.2839773120013879
0.2838591950704597
0.2836268639263477
0.2832329758433809
0.282665788528738
0.2819409521153584
0.2811355217369302
0.2803643247831154
0.2797852376695198
0.2795253762107821
0.279672689099789
0.2802072292593494
0.2811207093601614
0.282337417875257
0.2831059671963493
0.2823726276759917
0.2804630319950194
0.2782909895562481
0.2759252630044374
0.2808555302859502
0.2796594357521316
0.2777737972933237
0.2757447860018315
0.2744318143861365
0.2738449162141312
0.2733289061940312
0.2085467893430781
0.237886419621692
0.2640359358054229
0.27815001710752
0.2831283503214643
0.285092494764166
0.2859196501278136
0.2866273011993333
0.2871113554858931
0.2874242695891878
0.2877596207332507
0.2882778031220717
0.2888041202209343
0.2891053638885245
0.2891865946026725
0.289189360593346
0.289252837995943
0.289474782882902
0.2899000173289115
0.290501929698495
0.2912266426447805
0.2921012774075598
0.2929484313887178
0.2929857995786401
0.2925027825273864
0.2923176611554344
0.2920266912347267
0.2915512356147292
0.2908289305664966
0.2899293000879675
0.2889112923219984
0.2878387315265809
0.2868069501321576
0.2858819267671587
0.2851347850562949
0.2845896648761632
0.2842528202207401
0.2840899575145435
0.2840502009575669
0.2840735451935184
0.2841120331793038
0.2841376326820995
0.284132365140725
0.2840909137589884
0.2840142825859358
0.2838837005278988
0.2836491025049664
0.2832636744543266
0.2827140302793647
0.2820125241931973
0.281230658322818
0.2804769673405912
0.2799068910124904
0.2796490570896076
0.2797967369436656
0.2803431657936259
0.28128814964432
0.2825824104971563
0.2834855956453258
0.28293175166214
0.2812440098293963
0.279226305554315
0.2769524934946024
0.2743656857719437
0.2808138947628719
0.279341494976449
0.2771755346788422
0.2749526956131072
0.2734494918887978
0.272786265799592
0.2722849243767279
0.2716324981203896
0.1831464743480458
0.2085482709616321
0.2378879068384026
0.2640366343011021
0.2781502872086387
0.2831285992925009
0.2850927991048481
0.2859201037913033
0.2866278713893792
0.2871122361380809
0.2874257790492727
0.2877615663446278
0.2882787730528575
0.2888021402308427
0.2890995956125785
0.2891778630973835
0.2891796170443907
0.2892443509908696
0.2894694607961528
0.2898987362913392
0.2905045321925143
0.2912334666375986
0.2921133914616377
0.2929656604625699
0.2930089528650618
0.2925300034785777
0.2923407433019371
0.2920380587128779
0.2915460938076746
0.2908069256866782
0.289893137094852
0.2888657426254103
0.2877894309125621
0.2867596601391702
0.2858415343491139
0.2851045906845917
0.2845711760585147
0.2842456470936472
0.2840921855619403
0.2840591539546153
0.284086288384624
0.2841251204639158
0.2841439647183038
0.2841211546517555
0.2840476020584583
0.2839111450605243
0.2836767363752968
0.283300913784262
0.2827695056152945
0.2820920965775108
0.2813350820540119
0.2806018249100866
0.2800437531425871
0.2797909111652587
0.2799412706383149
0.2805012910451971
0.2814766413477305
0.2828454431485976
0.2838710449460433
0.283487323551736
0.2820134726687027
0.280143069690393
0.2779697047092731
0.2753990017862102
0.2726688554853658
0.2790214455216993
0.2765702686003758
0.2741556324457365
0.2724775995633124
0.2717215014028
0.2712314461249087
0.2706069396058777
0.2708469876569933
0.1637500195463842
0.1831479144237644
0.2085504512049635
0.2378899913322296
0.264037976530723
0.2781509874307325
0.2831291461966717
0.2850933553047508
0.2859208000116233
0.2866286868099275
0.2871134516799356
0.2874277613200203
0.2877639085254051
0.2882797048321166
0.2887995580054964
0.2890927719027561
0.2891678883650684
0.2891687463913732
0.2892350849542762
0.289463822537142
0.2898975869290118
0.2905076401276525
0.2912411903006437
0.2921263259585079
0.2929832460698772
0.2930317048328487
0.2925569527231749
0.292363322747259
0.2920477111123788
0.2915378899678031
0.2907810017777377
0.2898525898854351
0.2888158366581451
0.2877362592995802
0.2867091654303901
0.2857987589353311
0.2850728409416905
0.2845517235349792
0.2842377475119976
0.2840936237501096
0.2840664030865507
0.2840952582294757
0.2841284582301304
0.2841280646045816
0.2840691940264731
0.2839368848493378
0.2837073215739215
0.283343371968899
0.2828315422510068
0.282179506498686
0.2814492322594341
0.2807390578909434
0.2801961318423278
0.2799512868436898
0.2801066289286838
0.2806815949733627
0.2816858286420069
0.2831256049021032
0.2842602613870679
0.284039299670595
0.2827781153388372
0.2810446222670562
0.2789817021876191
0.2764242261330976
0.2737236018664737
0.2719247067119991
0.2786970067070484
0.2759573337681641
0.2733517550098287
0.2715228219028573
0.2706530744448664
0.2701754790155536
0.2695899933876527
0.2697709225271111
0.2698882029799066
0.1503347497181317
0.1637513570110816
0.1831505159115596
0.2085541394536227
0.2378939248840947
0.2640409812073344
0.2781525343444324
0.2831300854598003
0.2850942283569644
0.2859217908660611
0.2866297859213295
0.2871150544635679
0.2874302619173042
0.2877666478769887
0.2882805813501349
0.2887963505960119
0.2890848609253758
0.2891566538794857
0.2891567673918827
0.2892250994897463
0.2894579602126415
0.2898966767858899
0.2905113755197684
0.2912499384213486
0.2921401466751231
0.2930011543114782
0.2930535359905751
0.2925833418194069
0.2923850821965869
0.2920552337959019
0.2915261940704105
0.2907507017476053
0.2898073896527411
0.2887614466456366
0.2876790254032294
0.2866553452824703
0.285753553957271
0.2850394090178296
0.28453108244151
0.2842288914142657
0.284093538761587
0.284070592296419
0.2840961357575884
0.2841118954591273
0.2840742359797788
0.2839559332611238
0.2837373039302122
0.2833886401128546
0.2828986007836497
0.2822740935677046
0.2815730298643214
0.2808889157330898
0.2803644296289746
0.2801305350663821
0.2802930836704154
0.2808840170993681
0.281915869187281
0.2834218650673891
0.2846521070920565
0.2845883270988512
0.2835424237425428
0.2819405002059002
0.2799930308283602
0.2774452768707596
0.2747942984340072
0.2730027729229823
0.2707135600832307
0.2783593145560341
0.2753355519465052
0.2725417049318897
0.2705774632286199
0.2695877647295695
0.2691144931552011
0.268583954454221
0.2687027035937338
0.269049932779699
0.2689318732813536
0.1424334107176357
0.1503360186007393
0.1637543448098601
0.1831556957390251
0.208561165514832
0.237901508078363
0.2640471670911849
0.2781557984363929
0.2831316038131378
0.2850954835645633
0.2859231177481749
0.2866311970024421
0.2871170854210534
0.2874333117530907
0.2877697854143502
0.2882813926390883