/*--------------------------------*- C++ -*----------------------------------*\
| =========                 |                                                 |
| \\      /  F ield         | OpenFOAM: The Open Source CFD Toolbox           |
|  \\    /   O peration     | Version:  2006                                  |
|   \\  /    A nd           | Website:  www.openfoam.com                      |
|    \\/     M anipulation  |                                                 |
\*---------------------------------------------------------------------------*/
FoamFile
{
    version     2.0;
    format      ascii;
    class       surfaceScalarField;
    location    "518";
    object      phi;
}
// * * * * * * * * * * * * * * * * * * * * * * * * * * * * * * * * * * * * * //

dimensions      [0 3 -1 0 0 0 0];
oriented        oriented;


internalField   nonuniform List<scalar> 
56866
(
1.266334591329875e-08
4.250605124006417e-10
1.128896051353677e-08
1.370611621252832e-09
4.301947728050789e-08
4.433166381645932e-09
9.501803310732862e-09
1.783816068284432e-09
3.738232570958372e-08
7.001000521785581e-09
8.254148990360141e-08
1.623178429693486e-08
7.860436056115556e-09
1.637321731546727e-09
3.186535200842179e-08
7.294787115624936e-09
7.006969333162327e-08
1.946605500835315e-08
1.331985734721583e-07
4.077856843599572e-08
7.482256048326723e-09
3.747849749737258e-10
2.635775378888509e-08
7.137669908321202e-09
6.022375149176093e-08
1.713481601407737e-08
1.10906732430561e-07
4.175006470902597e-08
1.972824726932347e-07
8.40252406514522e-08
8.575909364471292e-09
-1.09231899076211e-09
2.513044570854482e-08
1.596003590939517e-09
4.986261015435187e-08
1.749165260072922e-08
9.598372484207905e-08
3.205093131361318e-08
1.616535746803183e-07
7.737130560832165e-08
2.7743609531696e-07
1.529991986119982e-07
1.057330514771498e-08
-2.008435167171538e-09
2.869823501510828e-08
-4.659297044158606e-09
4.756912574844789e-08
3.883489661072331e-09
7.962948691613018e-08
3.383759431716548e-08
1.407551152736264e-07
5.294274005284297e-08
2.24354631214908e-07
1.304436083332107e-07
3.765979561043818e-07
2.556930111409634e-07
1.248623052621346e-08
-1.914003208219304e-09
3.528580206612286e-08
-8.613743608868301e-09
5.415654504360445e-08
-1.1245606365293e-08
7.59600183197864e-08
7.545976881922632e-09
1.171046645890679e-07
5.748004807892166e-08
1.964043951848155e-07
8.088495173526884e-08
3.013515320773071e-07
2.056815011806255e-07
4.977857436457175e-07
4.004545968807964e-07
1.402696084363758e-08
-1.542151461350088e-09
4.162582735993388e-08
-8.255944294199868e-09
6.641479202674827e-08
-2.089009939714013e-08
8.618576933204954e-08
-2.147212777172602e-08
1.116444544698167e-07
1.299943894527018e-08
1.639974319738775e-07
8.9877414762354e-08
2.650635641170696e-07
1.171655518047124e-07
3.952171223668158e-07
3.082396028521197e-07
6.435653949110641e-07
5.944732108076669e-07
1.536491217991288e-08
-1.339520210059379e-09
4.676072501054837e-08
-6.679531471316336e-09
7.826089217808479e-08
-2.010391972498772e-08
1.053771352591948e-07
-4.009939664804464e-08
1.261723600658521e-07
-3.600077652027012e-08
1.562009403694002e-07
2.078781876444141e-08
2.223034798359614e-07
1.326286737304536e-07
3.490746923369196e-07
1.632987669856888e-07
5.085277498427754e-07
4.432679255596899e-07
8.151743176170348e-07
8.414977239560466e-07
1.680117858014709e-08
-1.439171564093487e-09
5.12586805108142e-08
-5.840206524208318e-09
8.789191578243303e-08
-1.631302027323768e-08
1.239931409642934e-07
-3.872209913471606e-08
1.536913045716562e-07
-6.763523923766548e-08
1.756802798898328e-07
-5.548273847744591e-08
2.114531496332658e-07
3.163069979484428e-08
2.942724880043896e-07
1.874199484929694e-07
4.507996411273124e-07
2.21018708283174e-07
6.433871507097359e-07
6.150438236756288e-07
1.011770292144071e-06
1.140656823337034e-06
1.860336090410137e-08
-2.206091917897516e-09
5.613307978635354e-08
-6.318843007098247e-09
9.63832485142961e-08
-1.433425727052754e-08
1.391638638038769e-07
-3.148649120398913e-08
1.80419336688283e-07
-6.54521863261325e-08
2.128658830380519e-07
-1.048387451564551e-07
2.363380280448644e-07
-8.0370159423353e-08
2.794007022323854e-07
4.649318236387972e-08
3.822505527441976e-07
2.559593490871221e-07
5.722107381252438e-07
2.921850910358384e-07
8.007531921959676e-07
8.260524588038683e-07
1.23074206791569e-06
1.488120563036628e-06
2.099559249145159e-08
-1.980203035579176e-09
6.22800993149048e-08
-8.967570574968459e-09
1.056563230412769e-07
-1.559719694317224e-08
1.526049427533593e-07
-2.777836787769193e-08
2.02139924028528e-07
-5.320962918914167e-08
2.487232613098119e-07
-1.013119687841248e-07
2.839012949886557e-07
-1.524177224577728e-07
3.094969996951363e-07
-1.104707327033985e-07
3.619813928271014e-07
6.675413644981568e-08
4.883053811014379e-07
3.398529154924963e-07
7.142670829283159e-07
3.786635557326748e-07
9.799645198567451e-07
1.07681955789383e-06
1.469298359781153e-06
1.880330715132898e-06
2.409470575175299e-08
-3.09674245325375e-09
7.043013350375523e-08
-9.504367965124284e-09
1.174039046222982e-07
-2.137621721223958e-08
1.673846088425463e-07
-3.038287905204632e-08
2.21362737462403e-07
-4.700393714398203e-08
2.773484793126878e-07
-8.183766832371984e-08
3.285317560066814e-07
-1.459442864483973e-07
3.663537038857391e-07
-2.092912783347426e-07
3.956032371225235e-07
-1.440962171896841e-07
4.605773687441204e-07
9.447203165498149e-08
6.136141534166989e-07
4.404967872994547e-07
8.763516780755878e-07
4.822666807823447e-07
1.179070731881226e-06
1.367040868709723e-06
1.72620711678515e-06
2.316067390481926e-06
2.786652611677758e-08
-3.777149534786829e-09
8.095417599767131e-08
-1.361708134686859e-08
1.329841242463505e-07
-2.44123140643321e-08
1.862009148172369e-07
-4.077978350718431e-08
2.425752010109092e-07
-5.160035569532883e-08
3.022455778602628e-07
-7.190402685876467e-08
3.624981167823237e-07
-1.158060576670702e-07
4.16688634568302e-07
-1.962814523566225e-07
4.57718365401883e-07
-2.714181959862333e-07
4.936595761497945e-07
-1.771836833091141e-07
5.753669602401174e-07
1.327115212806687e-07
7.578568281902321e-07
5.589802741059442e-07
1.05629723621322e-06
6.050340327012194e-07
1.396056696110578e-06
1.697182890789564e-06
2.002563446089098e-06
2.796655179132462e-06
3.212340702822175e-08
-4.88786168873514e-09
9.370372131729002e-08
-1.653563707684173e-08
1.530594080127275e-07
-3.368821459601448e-08
2.111796387625267e-07
-4.87979388937896e-08
2.697187690768356e-07
-6.847066014993767e-08
3.296332631413438e-07
-7.899392529637296e-08
3.908565650316636e-07
-1.002644378863909e-07
4.520631207379465e-07
-1.511827586795824e-07
5.083275016365085e-07
-2.468918613594643e-07
5.544649046756696e-07
-3.322366652011527e-07
6.015181059530744e-07
-2.033385831165291e-07
7.050058306932969e-07
1.85552747384488e-07
9.191310245336006e-07
6.961391484102996e-07
1.251269981704789e-06
7.498124471005882e-07
1.630207929168209e-06
2.069534711800601e-06
2.301525948834544e-06
3.325083093358607e-06
3.657781088947749e-08
-3.831022113365323e-09
1.080326634876368e-07
-2.017514663661564e-08
1.773065448950832e-07
-4.079178248593209e-08
2.433167036852463e-07
-6.582144920010718e-08
3.058336966147035e-07
-8.437293440728516e-08
3.649651281426927e-07
-1.042354835089265e-07
4.220799992427553e-07
-1.102208015659604e-07
4.803357880028925e-07
-1.285392894557203e-07
5.410213510977194e-07
-1.838777335041726e-07
6.001251583280895e-07
-2.925537957857051e-07
6.539861465967697e-07
-3.847115019306017e-07
7.169033545237843e-07
-2.152412269424265e-07
8.471236187547674e-07
2.57553939043537e-07
1.094668762580249e-06
8.527306520981754e-07
1.459075245156705e-06
9.209412463507221e-07
1.882790080910807e-06
2.488264166054735e-06
2.627611723044983e-06
3.905087334097289e-06
4.07994519148766e-08
-4.595927089373773e-09
1.229498283403454e-07
-1.780380595435693e-08
2.044738084305714e-07
-4.836663238570704e-08
2.820440367142746e-07
-7.952857512812499e-08
3.522998708698088e-07
-1.12283854681493e-07
4.123458209112826e-07
-1.313402177888814e-07
4.634657713576151e-07
-1.459288942709331e-07
5.126440080656028e-07
-1.425332703854505e-07
5.669211067381112e-07
-1.544400684094391e-07
6.280426194410395e-07
-2.117966521893306e-07
6.915796994636706e-07
-3.301479564658146e-07
7.554493254953585e-07
-4.232664506811035e-07
8.382371773769671e-07
-2.063575815344688e-07
9.993581881271562e-07
3.528561622286315e-07
1.281949903343993e-06
1.029851271116636e-06
1.679136242230034e-06
1.124588445398663e-06
2.156903809273816e-06
2.958970070874392e-06
2.986081705854972e-06
4.540485606077627e-06
4.424783189150817e-08
-3.070280910015493e-09
1.370306443080019e-07
-1.924502579215376e-08
2.32663796690206e-07
-4.498418397033767e-08
3.253436359032416e-07
-9.25593938518311e-08
4.082744002906899e-07
-1.355108215011165e-07
4.736262199395801e-07
-1.735613477084108e-07
5.202807831653955e-07
-1.878710103235209e-07
5.580579723325654e-07
-1.915595474142173e-07
5.991636239881173e-07
-1.747772931936675e-07
6.510314736242012e-07
-1.774304044738775e-07
7.142666026935104e-07
-2.344840457181324e-07
7.837564854586807e-07
-3.584563830246744e-07
8.593368729898927e-07
-4.443691858381276e-07
9.649048998918306e-07
-1.719086197455508e-07
1.160152490440063e-06
4.746495314949791e-07
1.479555856051467e-06
1.229423892550342e-06
1.912763839417772e-06
1.368726088203006e-06
2.456941046375898e-06
3.488105619122184e-06
3.382600126518983e-06
5.234798158052786e-06
4.63192763174866e-08
-2.070588648732265e-09
1.48459023978565e-07
-1.392589115739849e-08
2.591892742319106e-07
-4.637661177709259e-08
3.701797503685563e-07
-8.894444693741758e-08
4.70899375009119e-07
-1.559619921189991e-07
5.477932792437689e-07
-2.09685196233102e-07
5.948613808721938e-07
-2.481397627914117e-07
6.227515678793124e-07
-2.523681011934326e-07
6.480123399062265e-07
-2.405382761620954e-07
6.831809440492653e-07
-2.069297870060877e-07
7.344526065745882e-07
-1.976168903566679e-07
8.012480707557119e-07
-2.519766618465785e-07
8.779661092853497e-07
-3.770859384500377e-07
9.666423689597897e-07
-4.461129810780148e-07
1.097101841449005e-06
-1.088598784172937e-07
1.328982729631178e-06
6.252159241453672e-07
1.687475149922479e-06
1.454709777115188e-06
2.162862533278971e-06
1.662799158581653e-06
2.788092345616923e-06
4.082612413433257e-06
3.823099199389458e-06
5.990893540754268e-06
4.643957255032101e-08
-1.20578884955984e-10
1.552616592398421e-07
-8.8710844323104e-09
2.806425937514053e-07
-3.476555500833054e-08
4.123070314612559e-07
-8.903218352084162e-08
5.3586172239716e-07
-1.531448191912515e-07
6.313174521825001e-07
-2.400543122518717e-07
6.861117853238876e-07
-3.009394502792622e-07
7.093257366899155e-07
-3.347123307555776e-07
7.202051944336156e-07
-3.2444403122982e-07
7.355766783646924e-07
-2.930404434532277e-07
7.666687494070129e-07
-2.391466708875866e-07
8.186625859301093e-07
-2.150325589389485e-07
8.90146775852045e-07
-2.641575467556214e-07
9.75239286327346e-07
-3.856839425663237e-07
1.078360027830317e-06
-4.273724057324476e-07
1.235500497099774e-06
-1.538124680623448e-08
1.506206618996368e-06
8.064819283858739e-07
1.906967433717188e-06
1.710598602736959e-06
2.433461278471524e-06
2.017428961667955e-06
3.156079936618108e-06
4.749627348097291e-06
4.313713007575817e-06
6.810625232874364e-06
4.413787952197562e-08
2.300773451005498e-09
1.555322283915931e-07
-3.916520390089206e-10
2.933408304580705e-07
-2.156819905045024e-08
4.463636041564951e-07
-6.828815716272103e-08
5.971621822573551e-07
-1.507922891437254e-07
7.187625678153686e-07
-2.40037726513502e-07
7.900348246042884e-07
-3.443515210765128e-07
8.165146826746034e-07
-4.081327332936803e-07
8.184393316811206e-07
-4.329452887447406e-07
8.154223682692091e-07
-4.041941299231031e-07
8.227896459129365e-07
-3.492206637482338e-07
8.509289419015047e-07
-2.714155558116625e-07
9.045313089326001e-07
-2.294173869311529e-07
9.816423918376186e-07
-2.705614815102771e-07
1.076249496343009e-06
-3.835735722742965e-07
1.195295403287489e-06
-3.871722370460659e-07
1.380957724507462e-06
1.098665440034082e-07
1.692798536616045e-06
1.020645292675047e-06
2.14024917597473e-06
2.003809232185705e-06
2.729360457886698e-06
2.444143741065811e-06
3.567068876091186e-06
5.496271092621959e-06
4.860668397387974e-06
7.694303517690393e-06
3.875564110034404e-08
5.380503177744639e-09
1.477332897171492e-07
1.009808114449212e-08
2.937315609174203e-07
-7.828650130749076e-10
4.665575373986256e-07
-4.175946769015696e-08
6.471868555512649e-07
-1.178396595331004e-07
8.025252922328555e-07
-2.348927253382486e-07
9.003545185524923e-07
-3.499923494935743e-07
9.39878872994223e-07
-4.679724228003607e-07
9.412126622517482e-07
-5.309077888931627e-07
9.254962481097151e-07
-5.43018145391028e-07
9.105417706452976e-07
-4.918932673121536e-07
9.108250852429936e-07
-4.091787681033509e-07
9.365854583441288e-07
-3.034700148237002e-07
9.924194027082929e-07
-2.401954289167497e-07
1.076020330744118e-06
-2.703323822333169e-07
1.18135901833646e-06
-3.696381983125654e-07
1.31803367795357e-06
-3.242484612920058e-07
1.534345909323728e-06
2.683160661860359e-07
1.890118559249059e-06
1.27077452060154e-06
2.390224968403492e-06
2.34293943190158e-06
3.055972054389707e-06
2.955239793900405e-06
4.027640181886688e-06
6.329295443315537e-06
5.4700393789165e-06
8.640094705403935e-06
2.958049191959471e-08
9.17466806303442e-09
1.297743533180563e-07
2.333636142422517e-08
2.789584674490239e-07
2.486962679681628e-08
4.672813219461325e-07
-1.507186588186165e-09
6.775896317516171e-07
-7.216150710335882e-08
8.727800486435331e-07
-1.877452218689793e-07
1.008281413979179e-06
-3.430424789537014e-07
1.072431007160355e-06
-4.822971246934691e-07
1.083618064556856e-06
-6.105306233359076e-07
1.064055235269267e-06
-6.694697695635666e-07
1.032831437909642e-06
-6.653070902713586e-07
1.006702964137166e-06
-5.877158398662048e-07
1.000142188422407e-06
-4.727642371315224e-07
1.023749895501923e-06
-3.348028362951885e-07
1.082295900075932e-06
-2.464711870666682e-07
1.173250638349509e-06
-2.622247169620214e-07
1.290670189654449e-06
-3.422748270588734e-07
1.446956606084423e-06
-2.368632765789474e-07
1.696481704296969e-06
4.619522041243175e-07
2.099777721010679e-06
1.56121702315288e-06
2.660358212572255e-06
2.73855251826572e-06
3.419298298558096e-06
3.563577341136549e-06
4.544714937188531e-06
7.254619704480945e-06
6.145631280442012e-06
1.835402776815471e-08
1.122564130169635e-08
9.937397088697693e-08
3.957426502347887e-08
2.452769355608926e-07
5.701494342178445e-08
4.440425735994774e-07
4.810659958060323e-08
6.801192553217813e-07
-4.037264902705117e-09
9.183532191425878e-07
-1.177320214733952e-07
1.102296507457908e-06
-2.815231281419381e-07
1.204473746731189e-06
-4.75239129298863e-07
1.237962891738719e-06
-6.364934988097147e-07
1.225702273440709e-06
-7.723045634636181e-07
1.187689542267311e-06
-8.243286082293453e-07
1.141655801006232e-06
-8.002591003282602e-07
1.104289686566592e-06
-6.918382702231443e-07
1.09067781949767e-06
-5.397333473094196e-07
1.112139145419471e-06
-3.646462415559008e-07
1.173808759548992e-06
-2.470302904229103e-07
1.273032581267101e-06
-2.445871031482897e-07
1.404056996169551e-06
-2.993762113410127e-07
1.582265849945973e-06
-1.226472091124763e-07
1.86811647953705e-06
6.936105958840261e-07
2.323605276468662e-06
1.897969119403865e-06
2.954669688287396e-06
3.203176389323536e-06
3.825961742690016e-06
4.282330095592072e-06
5.125379514267537e-06
8.274868000105525e-06
1.00598353044289e-08
8.293249097165816e-09
6.215009961024785e-08
4.844809773025961e-08
1.88514410158977e-07
9.63359241802449e-08
3.911700480351223e-07
1.098840966837982e-07
6.480245750910443e-07
8.019983234800107e-08
9.276221213172099e-07
-1.330661762565735e-08
1.168823143993038e-06
-1.842589658365425e-07
1.323300552849477e-06
-4.0018856572819e-07
1.393687906475961e-06
-6.310548916037632e-07
1.401999382402325e-06
-8.126702158864697e-07
1.369208491895138e-06
-9.538947956243831e-07
1.313505950196551e-06
-9.961812216317534e-07
1.252367340456425e-06
-9.483361933930322e-07
1.203139907104864e-06
-8.042640725583004e-07
1.18196019105828e-06
-6.095686517185529e-07
1.201134178266062e-06
-3.919739522131369e-07
1.266315111538731e-06
-2.403129870440579e-07
1.374811246184728e-06
-2.153419987768e-07
1.521178182042177e-06
-2.382885956581297e-07
1.724002482442451e-06
2.146316060404025e-08
2.049965058449356e-06
9.672504126252206e-07
2.563692555359555e-06
2.288941931454894e-06
3.277812140032541e-06
3.75132564293549e-06
4.283205035818564e-06
5.124500410996712e-06
5.776286178883256e-06
9.389676085725603e-06
5.803528113792882e-09
4.255294855752162e-09
3.378880058666589e-08
3.665291221979006e-08
1.187408203436179e-07
1.18220240958814e-07
3.022534967475099e-07
1.852516120850137e-07
5.731466676085004e-07
1.847591086890432e-07
8.9029583619554e-07
1.175244961220354e-07
1.192911208264113e-06
-3.739496301805853e-08
1.413732331583799e-06
-2.746885948776138e-07
1.537056561057144e-06
-5.434588292096553e-07
1.58145993354921e-06
-8.105911711457915e-07
1.568152471705598e-06
-1.01154579676724e-06
1.515815445935237e-06
-1.156279521211625e-06
1.442006613527358e-06
-1.185820903526082e-06
1.364781548274269e-06
-1.109977048003868e-06
1.302659432777226e-06
-9.249516105632492e-07
1.273159467107458e-06
-6.816240049441813e-07
1.289798989449407e-06
-4.154578329409141e-07
1.358884807773209e-06
-2.243875250373349e-07
1.477775181043803e-06
-1.719389049308732e-07
1.641477586572333e-06
-1.5576469834882e-07
1.872063633038593e-06
1.993650884824842e-07
2.242753694357455e-06
1.288186545856045e-06
2.822486718497897e-06
2.744266904619835e-06
3.635165071103324e-06
4.399361183796921e-06
4.798778487752743e-06
6.102007780471024e-06
6.29014422834439e-06
1.059365493832694e-05
2.966581535156057e-09
2.835967519648909e-09
1.879871713520615e-08
1.924365212024911e-08
6.439773113772745e-08
9.099433482594563e-08
1.920598515449858e-07
2.284123184695157e-07
4.462717856651412e-07
3.12125553572076e-07
7.941303872805959e-07
2.809212873211437e-07
1.159649229855443e-06
1.507855771167499e-07
1.458641983254199e-06
-8.230490243965326e-08
1.651697577465074e-06
-3.893303093445044e-07
1.749256774285586e-06
-7.111771474590863e-07
1.772011611751388e-06
-1.014491770140782e-06
1.738496801228253e-06
-1.234157429498885e-06
1.666220874354836e-06
-1.380529004974126e-06
1.573062287100468e-06
-1.394103935875086e-06
1.478250957860262e-06
-1.2855681121454e-06
1.401869050797746e-06
-1.053635176607728e-06
1.363099339359755e-06
-7.549304368490147e-07
1.37687479727481e-06
-4.334501221150471e-07
1.450286764586587e-06
-1.968992138349265e-07
1.58084162466182e-06
-1.113035401737088e-07
1.764176977308507e-06
-4.787808871913721e-08
2.026217397485252e-06
4.15898099465478e-07
2.447286525406715e-06
1.663386455751804e-06
3.102910652069655e-06
3.276517238257165e-06
4.032894416624137e-06
5.165245127504559e-06
5.229746907790959e-06
7.162401034968238e-06
7.06247774841993e-06
1.1887757921985e-05
8.464196578674826e-10
2.119125523482845e-09
9.207102800398152e-09
1.242579436679681e-08
3.483102378730744e-08
4.880856993603735e-08
1.04046330422973e-07
1.790060179402894e-07
2.867580335039409e-07
3.879245148338961e-07
6.256095143920554e-07
4.806455374222428e-07
1.049908078733342e-06
3.906603709889159e-07
1.439397807737776e-06
1.700286313771191e-07
1.719283824065531e-06
-1.498913146358905e-07
1.887837524134805e-06
-5.279092417272116e-07
1.964737268586265e-06
-9.038573291862242e-07
1.967918428428902e-06
-1.24395772044531e-06
1.914018902549223e-06
-1.481922477401538e-06
1.820430884459931e-06
-1.627948069088872e-06
1.706044066353107e-06
-1.621897191601408e-06
1.591713315133594e-06
-1.475411572432814e-06
1.499412106605348e-06
-1.18994376116449e-06
1.450244885762274e-06
-8.283237681282746e-07
1.460758401632602e-06
-4.439216971162163e-07
1.53896381167352e-06
-1.550223914548504e-07
1.682633677778055e-06
-2.976011013766971e-08
1.888265693877966e-06
9.007258452610909e-08
2.186122833212551e-06
6.770624956987123e-07
2.664528460142144e-06
2.101765915030723e-06
3.408485479555663e-06
3.900925836498237e-06
4.397768140055555e-06
5.997219768869781e-06
5.843125600184288e-06
8.381752832616494e-06
7.914463837930147e-06
1.325864818525079e-05
-2.439301831079915e-10
1.089940264442726e-09
2.216942959736463e-09
9.107435530860039e-09
1.636569418034234e-08
3.088944125917501e-08
5.478600355163505e-08
9.806697041939732e-08
1.554747785531068e-07
3.102874271662921e-07
4.079194842913718e-07
6.056128673407247e-07
8.419796621211799e-07
6.885730990236461e-07
1.328689997656341e-06
5.013657307629287e-07
1.719399250697235e-06
1.699127972908459e-07
1.977964628910644e-06
-2.400186206511285e-07
2.127437453159e-06
-6.906104194686478e-07
2.186668422741562e-06
-1.122562207370052e-06
2.17055292001076e-06
-1.50051147809952e-06
2.094942955026842e-06
-1.756389076857313e-06
1.977909963160554e-06
-1.899831675888319e-06
1.839876850027065e-06
-1.870062976130953e-06
1.703698167528744e-06
-1.679697212296854e-06
1.593538478774444e-06
-1.33321767202792e-06
1.532675459891183e-06
-9.002420661675386e-07
1.539469853625948e-06
-4.444300852152958e-07
1.622999508932052e-06
-9.538832507560952e-08
1.781452490644227e-06
7.705251752080247e-08
2.012488176717349e-06
2.637072394186615e-07
2.351357576812821e-06
9.902303336969532e-07
2.895696459191883e-06
2.614554747768528e-06
3.712861953521007e-06
4.585828024221451e-06
4.862498567954892e-06
6.977846599315347e-06
6.53066968700961e-06
9.765542915680304e-06
8.841126029238534e-06
1.468077291656213e-05
-1.125142994107401e-10
-1.322191763550693e-10
-1.297049274955984e-09
4.603211304097721e-09
3.315128481328719e-09
2.215620938561401e-08
2.470367878297358e-08
6.096973284546227e-08
7.974230255070284e-08
1.737974630966425e-07
2.219359498972759e-07
4.962689186849443e-07
5.599405475882075e-07
8.876504980717424e-07
1.091139921087434e-06
9.26122435646938e-07
1.618435972412556e-06
6.023279362626101e-07
1.998722476061781e-06
1.491541964685874e-07
2.239837994942589e-06
-3.524192972027281e-07
2.374312146664951e-06
-8.782525112413323e-07
2.416910781327883e-06
-1.368898004106173e-06
2.380444810568608e-06
-1.786042578673773e-06
2.280904491711893e-06
-2.059367780640753e-06
2.137643730839831e-06
-2.197635497502311e-06
1.973047584365204e-06
-2.139412466973993e-06
1.812308853176107e-06
-1.898466738105373e-06
1.682073670472084e-06
-1.482616160591075e-06
1.608047340452266e-06
-9.688382630043065e-07
1.610612345788605e-06
-4.320426959778691e-07
1.700079213390452e-06
-1.40160865661778e-08
1.875245748955971e-06
2.142951309268702e-07
2.135330714429791e-06
4.797330248885432e-07
2.521452863019447e-06
1.364474681585259e-06
3.137838300299526e-06
3.189575599853401e-06
4.060007896633875e-06
5.388318482306847e-06
5.380816701840373e-06
8.127695687673305e-06
7.296409285125852e-06
1.131025952904579e-05
9.82796200433333e-06
1.611583859105314e-05
1.522956202193563e-09
-1.635786423240978e-09
-6.937956041368211e-10
-7.368945575827685e-10
-3.126125390721331e-09
1.104374352657437e-08
4.098202665684348e-09
4.275960777119921e-08
3.448752348945842e-08
1.062226661112358e-07
1.109496232654964e-07
2.847816564645478e-07
3.068801108251719e-07
7.493274770227272e-07
7.44433024781776e-07
1.234355848147586e-06
1.364417694819431e-06
1.180140078901143e-06
1.913216021392317e-06
6.878327390185676e-07
2.28093316523149e-06
1.080588900390194e-07
2.50926110660458e-06
-4.873684320034143e-07
2.630909122078563e-06
-1.092251881444511e-06
2.656394216516508e-06
-1.64481813339775e-06
2.597482907083268e-06
-2.102630221411952e-06
2.471026468113701e-06
-2.392718247586642e-06
2.298151402086937e-06
-2.522746986697174e-06
2.103586995959812e-06
-2.430692905047037e-06
1.91518919768407e-06
-2.131581893028217e-06
1.762377996933851e-06
-1.636931394726564e-06
1.673549137724369e-06
-1.031773449917091e-06
1.671326363911291e-06
-4.032922358943179e-07
1.767447147044165e-06
9.37824471600837e-08
1.961572133672441e-06
3.88053134975591e-07
2.255011609539315e-06
7.461742640235785e-07
2.702444320379915e-06
1.799865789627301e-06
3.390830273816433e-06
3.858753003137943e-06
4.438821341175515e-06
6.33030980182098e-06
5.959613969872905e-06
9.464491536401518e-06
8.138071043470549e-06
1.300014625984246e-05
1.084466159771971e-05
1.751182999628839e-05
4.61353606879902e-09
-3.091276876443218e-09
4.937121365728114e-09
-7.26725054152479e-09
-1.753428607695728e-09
-2.11098510476179e-09
-5.871060258700192e-09
2.101218575595249e-08
4.503686272022265e-09
7.274150819816025e-08
4.596449114703931e-08
1.712055106196114e-07
1.49709715748446e-07
4.419500078116635e-07
4.129755112670489e-07
1.080782936068617e-06
9.587591837650011e-07
1.640013202773052e-06
1.65386904205089e-06
1.439486533190238e-06
2.212822921689276e-06
7.559425659501257e-07
2.570331057247827e-06
4.698837532581557e-08
2.789331894304932e-06
-6.45791343157368e-07
2.898659349740075e-06
-1.334515445644498e-06
2.905349528873262e-06
-1.952673896847735e-06
2.821008431639834e-06
-2.452633158846102e-06
2.663938331213511e-06
-2.758498982079493e-06
2.457468730633098e-06
-2.876657268763839e-06
2.229034976074135e-06
-2.744538611588358e-06
2.009480190720584e-06
-2.378683187619527e-06
1.831298797308847e-06
-1.794683963955778e-06
1.725851736592726e-06
-1.086314217365236e-06
1.718239496945061e-06
-3.540842591458117e-07
1.821859354899042e-06
2.334941217517384e-07
2.037562743634053e-06
6.055022140476533e-07
2.379797309641351e-06
1.068820115205195e-06
2.876229551268955e-06
2.314467355988159e-06
3.658002819934566e-06
4.639568625052144e-06
4.854104390334696e-06
7.435819063890242e-06
6.603019576395566e-06
1.099953914986199e-05
9.042356095911305e-06
1.480245166004671e-05
1.162932053404778e-05
8.710280752984171e-09
-4.096843504711442e-09
1.53650864709255e-08
-1.352047269773403e-08
9.090261940536298e-09
-1.811150119842289e-08
-3.339937743350561e-09
-4.643692885746947e-09
-9.69572868593939e-09
3.521079905773787e-08
4.433434334272305e-09
1.142702819370669e-07
5.931007640593169e-08
2.616033764820121e-07
1.969936420486288e-07
6.579297342589758e-07
5.406229367811917e-07
1.498917546391768e-06
1.197475425491188e-06
2.096405623454865e-06
1.955443874281404e-06
1.696865164503703e-06
2.519824343500357e-06
8.06448095960848e-07
2.870531208894137e-06
-3.421096734573876e-08
3.082082956652978e-06
-8.29215126429304e-07
3.178231341024713e-06
-1.607398371365083e-06
3.163423089682793e-06
-2.295067769967333e-06
3.04984345036175e-06
-2.838541622975183e-06
2.857761730631959e-06
-3.158767861138965e-06
2.613113089584997e-06
-3.260737057612587e-06
2.346395566561629e-06
-3.081456360082643e-06
2.091769941178125e-06
-2.639154008850351e-06
1.885117840214119e-06
-1.953937784306189e-06
1.761054510882089e-06
-1.129125612448968e-06
1.74741329698845e-06
-2.796406640271253e-07
1.859531399201479e-06
4.11525371440463e-07
2.11086309060769e-06
8.74435813564276e-07
2.485120180755034e-06
1.459929490436733e-06
3.050215654564857e-06
2.922251839008399e-06
3.940750842591682e-06
5.552921885595082e-06
5.309853630732759e-06
8.728980806613007e-06
7.309619062927524e-06
1.27322764273706e-05
9.789665653034758e-06
1.664210213492069e-05
1.314461844237804e-08
-4.434884971473723e-09
2.904469320875037e-08
-1.777659547533668e-08
2.887987826157963e-08
-3.331129545524292e-08
1.422436419751621e-08
-3.567642021220949e-08
-5.506655142819168e-09
-8.834242706989317e-09
-1.47720114046678e-08
5.441533189576401e-08
3.794732116585178e-09
1.69783817277526e-07
7.453742611616682e-08
3.840572968874319e-07
2.528535301227083e-07
9.456973826537806e-07
6.874643224710474e-07
2.008926908686757e-06
1.455658922371598e-06
2.596189827921782e-06
2.268624097756382e-06
1.948065030520986e-06
2.837465939898787e-06
8.395132430185539e-07
3.184210832940084e-06
-1.363393139764255e-07
3.388720923947989e-06
-1.039704898121827e-06
3.469669892598926e-06
-1.913643641881389e-06
3.4297177502571e-06
-2.674937519126422e-06
3.282280777058217e-06
-3.263076480519598e-06
3.050075953721499e-06
-3.595730222479548e-06
2.762037235752748e-06
-3.676401651967528e-06
2.4520851810114e-06
-3.441771480114483e-06
2.158039269971925e-06
-2.912074498375401e-06
1.91949559440124e-06
-2.112383649904172e-06
1.774629070625781e-06
-1.15635414234641e-06
1.754286196198668e-06
-1.743949679887747e-07
1.886535692886361e-06
6.358515690318612e-07
2.155174556844611e-06
1.204381644662775e-06
2.578430666431916e-06
1.931713215338557e-06
3.222858009453097e-06
3.640145383819417e-06
4.240142469171861e-06
6.622630007639983e-06
5.80788729939041e-06
1.023071214471351e-05
7.929121139516703e-06
1.459281674089376e-05
1.068519912868051e-05
1.847296429337809e-05
1.70250920096542e-08
-3.880712250158675e-09
4.37185263517839e-08
-1.910965459008364e-08
5.463425902679207e-08
-4.353116824742486e-08
4.584551574537594e-08
-6.493381064593973e-08
2.059713068655412e-08
-6.178081642979391e-08
-8.295162477211652e-09
-1.531278015300187e-08
-2.11708634656427e-08
7.93801775840372e-08
2.624373595217064e-09
2.416947144815111e-07
9.149716873638496e-08
5.454123084414023e-07
3.163028822582823e-07
1.316857078037195e-06
8.502668228478637e-07
2.614317858123652e-06
1.730925929477883e-06
3.13388712813538e-06
2.594874238207946e-06
2.190656428556766e-06
3.168721466440177e-06
8.550016735036248e-07
3.513204650005867e-06
-2.608230081444949e-07
3.709783410573617e-06
-1.279818605986894e-06
3.772453567651809e-06
-2.256380577322691e-06
3.702788973048669e-06
-3.095430089795282e-06
3.516050560006761e-06
-3.729050918151331e-06
3.237870920805708e-06
-4.071545258147049e-06
2.900576210277413e-06
-4.124890785341262e-06
2.541876899552456e-06
-3.825611596192013e-06
2.203604985376634e-06
-3.196183617800656e-06
1.929414204777878e-06
-2.267159005176965e-06
1.761360053345071e-06
-1.163423379982969e-06
1.743455156208453e-06
-3.131697050948036e-08
1.876568430515296e-06
9.144576396176651e-07
2.17656315329845e-06
1.606248460075878e-06
2.655915925788972e-06
2.498655236910606e-06
3.392087609000378e-06
4.48819783840863e-06
4.556247660057233e-06
7.874269562892098e-06
6.262481229285907e-06
1.189734753041611e-05
8.68120391178911e-06
1.659681214463758e-05
1.146324979178789e-05
2.018410090105043e-05
1.920221507868641e-08
-2.177518534260575e-09
5.644803128907137e-08
-1.661062581012006e-08
8.207131966298195e-08
-4.654767685730353e-08
8.668467642383561e-08
-8.437049190472937e-08
6.697800973360001e-08
-1.113159387391294e-07
2.843652167791955e-08
-9.851316200090358e-08