/*--------------------------------*- C++ -*----------------------------------*\
| =========                 |                                                 |
| \\      /  F ield         | OpenFOAM: The Open Source CFD Toolbox           |
|  \\    /   O peration     | Version:  2006                                  |
|   \\  /    A nd           | Website:  www.openfoam.com                      |
|    \\/     M anipulation  |                                                 |
\*---------------------------------------------------------------------------*/
FoamFile
{
    version     2.0;
    format      ascii;
    class       volVectorField;
    location    "518";
    object      U;
}
// * * * * * * * * * * * * * * * * * * * * * * * * * * * * * * * * * * * * * //

dimensions      [0 1 -1 0 0 0 0];


internalField   nonuniform List<vector> 
28642
(
(0.001437052975245267 -0.0006493359821442209 -8.055708017711857e-20)
(0.001493980904572397 -0.0006683913085038329 1.115331816210911e-24)
(0.004434407124923798 -0.001993733157740657 1.341384629111222e-19)
(0.001255102393216774 -0.0006416572637173593 -7.128848909726465e-20)
(0.004568035868109289 -0.002038250671198759 -1.184302268401866e-19)
(0.007731558675187876 -0.003457653383914891 1.514135197558782e-19)
(0.0009788878251082527 -0.0005525608901101343 -1.430795970047945e-19)
(0.003857093069133881 -0.00197064405259921 1.747823499779996e-24)
(0.007867287209072829 -0.003500771483008391 1.300034343339879e-19)
(0.01130829951021608 -0.005049813530757465 -1.701964910742514e-19)
(0.000831985556800111 -0.0005259534541347166 1.42662805558867e-19)
(0.003029809244114306 -0.001709099432777778 2.299440735038893e-19)
(0.006663034765287745 -0.0034016493360204 1.245540341756126e-19)
(0.01139446629354464 -0.005064360589054146 -4.361209298840706e-24)
(0.01514806882490712 -0.00676780619991586 5.831277472022298e-24)
(0.000836445357660172 -0.0005858493115594496 1.090168531463614e-24)
(0.002578227810692696 -0.00162946782138827 -2.290616751316803e-19)
(0.005266470172276175 -0.002968914369102721 -2.502460210830416e-19)
(0.009690486254444295 -0.004942586417634854 -2.716934335883308e-19)
(0.01514901621630441 -0.006730876265121115 4.80642233680946e-24)
(0.01922962990725191 -0.008602412162349018 0)
(0.001007745214849562 -0.0007791871533751816 1.175174952910338e-26)
(0.002587527702614555 -0.001813357062678031 2.295731559611209e-19)
(0.004485151371802032 -0.002833798970096014 0)
(0.007708695867880368 -0.004342398268029552 2.729236934477385e-19)
(0.01295226611393468 -0.006599374275581953 1.483681262760409e-19)
(0.01912586733926144 -0.00849806465815839 1.731565070073548e-19)
(0.02351718617071617 -0.01053871084435473 4.311393927755787e-23)
(0.001184665845081403 -0.00100863388644519 1.430020658027353e-19)
(0.003104305515529421 -0.002402306240414142 4.022739815510905e-26)
(0.004493168651443424 -0.003150605398654231 -2.497069833377733e-19)
(0.006569977911377625 -0.004149780200509125 -2.715082744536947e-19)
(0.01037386627457138 -0.005838856670984555 0)
(0.01645779767300816 -0.008376213739825078 4.948022022834243e-24)
(0.02331066987361662 -0.01035989843333598 -1.900971211588676e-19)
(0.02794534292630893 -0.01254946511073589 1.563709199130786e-23)
(0.001303615285346075 -0.001220392538635204 1.430064418729937e-19)
(0.003643064470727593 -0.003103812755488741 -2.296599408654588e-19)
(0.005369556395545129 -0.00415879489821915 4.994843029461733e-19)
(0.00656622740951194 -0.00460705810574042 0)
(0.008848566663246077 -0.005587228589510552 2.962885058428685e-19)
(0.0132782359644681 -0.007466977448307085 0)
(0.0202102433277702 -0.01027409194164809 -2.640070659550694e-27)
(0.0276720808185113 -0.01230329680544474 -2.073490669800023e-19)
(0.03239480625697563 -0.01458353875394596 0)
(0.001371939449077711 -0.001411443639076029 1.091196875470335e-24)
(0.004007150686300857 -0.003753126274277014 0)
(0.006290944120725997 -0.005363276367786377 -2.496922342864823e-19)
(0.007812722465420288 -0.006056655438897932 -2.720697979419894e-19)
(0.008817819928536747 -0.006190825797101997 2.969254247689576e-19)
(0.01133670658947914 -0.007155816459244543 3.233243654835573e-19)
(0.01643483835442253 -0.009233548759435561 -3.541595071014757e-19)
(0.02420028568660472 -0.01228768854226906 -1.918512246702439e-19)
(0.0321481315482359 -0.01430182339282981 2.230318883426843e-19)
(0.03667184459036497 -0.0165562231058918 3.33568051087087e-23)
(0.001419990249132344 -0.001605866220426098 -1.430405490875423e-19)
(0.004218791468002424 -0.00434195888082249 -3.504137228967052e-24)
(0.006915698814484924 -0.006480297451652185 2.495796136332548e-19)
(0.009135025807265357 -0.007793645273224578 2.716543874714822e-19)
(0.01043868026449847 -0.008100384888211673 4.517780520940078e-24)
(0.0112581754867837 -0.007909448013948026 -3.235470111876439e-19)
(0.01404839898791712 -0.008864012229298151 -3.521351042898858e-19)
(0.01984850983592641 -0.01114066889244926 3.838217783747748e-19)
(0.02839457384519296 -0.01439958234112663 2.060592847071238e-19)
(0.03662792893571269 -0.01630751348771772 -2.859195292241127e-23)
(0.04053053552570236 -0.01835847092370186 -2.597850287030112e-19)
(0.001473589386565118 -0.001834046741333503 0)
(0.004371285336673571 -0.004945461251917647 2.296452196423409e-19)
(0.00728159679978685 -0.007496970493804775 -2.49434460894735e-19)
(0.0100330208370661 -0.009406216145993655 -1.039984306948315e-26)
(0.01217137161877566 -0.0103923204599475 -2.940973810828438e-19)
(0.01324525385882798 -0.01028913536007881 -9.776061079050406e-24)
(0.01389347991537486 -0.009767610688676737 -1.070845006152656e-23)
(0.01699151640404325 -0.01071631525971612 0)
(0.02350602648782178 -0.01318020412202427 0)
(0.03271874626789085 -0.01657173819154936 0)
(0.04094072410590367 -0.01824598807504918 -2.36450062244251e-19)
(0.04375993253975646 -0.01989548273502707 1.162263355324905e-22)
(0.001546773527810923 -0.002122512206844695 -1.432534283251358e-19)
(0.00454416498595128 -0.005658427431855152 -2.297071732483895e-19)
(0.00754986442146602 -0.008544777105358324 -2.492773810753433e-19)
(0.01056063740271228 -0.01087753474741118 2.700572351541933e-19)
(0.01334218148340334 -0.01251566940966568 -2.909040822652955e-19)
(0.0153710462400986 -0.01313546488133601 -2.450149018012609e-26)
(0.01620996162678467 -0.0126062350639265 3.410337281132565e-19)
(0.01671828497705445 -0.01176163274348427 -3.767502620330304e-19)
(0.02015862395111856 -0.01270738699412548 4.088070642665858e-19)
(0.02736048853952517 -0.01532499136305405 0)
(0.03704166613644604 -0.01873770039624692 0)
(0.04487576993206417 -0.02002498029238431 4.552808020528223e-19)
(0.0462727201272306 -0.02112683694424112 1.976680064331679e-19)
(0.001646845982848389 -0.002499783198924016 -1.43481848077273e-19)
(0.004779593792142153 -0.00656230144507673 -3.506132218994707e-24)
(0.007858180998185626 -0.009789502193020862 2.49149903336775e-19)
(0.01095232359669285 -0.01240086663883063 5.378583586059972e-19)
(0.01402231002444369 -0.01444967922081413 4.375051465380304e-24)
(0.01677190730755852 -0.01574248981883891 -9.204461526347167e-24)
(0.01864166502195281 -0.01594481893805547 6.379548954734267e-19)
(0.01926424431836772 -0.01499872218441074 -7.012171547421212e-19)
(0.01970057813235247 -0.01386860865629732 7.916168124420338e-19)
(0.02351172351433668 -0.01481227568532535 -4.292376606335301e-19)
(0.03131446970918728 -0.01751937080208558 0)
(0.04117767599967743 -0.02080398638075189 -2.665680323084361e-23)
(0.04824251494152816 -0.0215605867064913 -2.081747499735566e-19)
(0.0481118357021016 -0.02207021329999093 8.033551218592978e-23)
(0.001763314759989261 -0.002972923742239546 0)
(0.005097858779793345 -0.007743165635160017 4.905240041524948e-26)
(0.008278605698889951 -0.01137234511767228 -2.491215908648405e-19)
(0.01140873554114216 -0.01421974961174745 2.676676675758722e-19)
(0.01452493238678177 -0.01645367687697036 -2.81651697560977e-19)
(0.01754193404547801 -0.01808550564223735 8.791011215849086e-24)
(0.02013155812454062 -0.01890797463352826 -2.906100254542901e-19)
(0.02178371887283397 -0.01864959748412684 -3.019412920800879e-19)
(0.0222650137756933 -0.01735454664297829 3.401850693547539e-19)
(0.02276144413533518 -0.01603161647752033 -4.011767807904214e-19)
(0.02696516633875037 -0.01697544903814963 2.666785186782151e-23)
(0.03521585499412519 -0.01967693867115877 2.674412687249756e-23)
(0.04492252046357649 -0.02266838721430324 -2.504561922185914e-23)
(0.05093646058401487 -0.02280627202330922 -4.448900991552426e-23)
(0.04938936948373333 -0.022774565433093 -1.360606337400155e-19)
(0.001877497458530267 -0.003535746388414456 7.21056672932619e-20)
(0.005464710231468073 -0.00921981163973733 -1.761901647517671e-24)
(0.008842785660723754 -0.01343964758301159 2.492230165930427e-19)
(0.01203377508753159 -0.01654063163557304 2.664463413577422e-19)
(0.01511840451792352 -0.01885377886453912 -2.760461118215175e-19)
(0.01808112497894883 -0.02049263554197709 0)
(0.02082927406481341 -0.02148571755575106 0)
(0.02310586302353959 -0.02171509904363424 2.52731649692447e-19)
(0.02452800399829931 -0.0210177180688648 2.612148644674208e-19)
(0.02500957461552529 -0.0195136328071866 -3.070579978610957e-19)
(0.02576556026063697 -0.01815275284554518 -4.72403220417083e-23)
(0.03038145825115766 -0.01910809065599627 1.317431381956282e-26)
(0.03888170519162465 -0.02169413534474404 2.531237144055554e-23)
(0.04811249862478553 -0.02424966613422517 9.018977753407909e-23)
(0.0529602989638985 -0.02376251158052511 0)
(0.05022531342364317 -0.02329283067486653 1.138136706185294e-19)
(0.00196222649082022 -0.004156810338212814 1.102037716536804e-24)
(0.005821025673173569 -0.01097002050659495 -2.31198818386948e-19)
(0.0094889697007577 -0.01602005109173938 3.812444642220779e-24)
(0.01286850326390806 -0.01957145936490849 -4.053728857310808e-24)
(0.01594120924773534 -0.02192615809640127 2.705509736398802e-19)
(0.01873153686223892 -0.02337418882522782 -7.890819042800335e-24)
(0.02124445786137101 -0.02409119159322671 -7.171858442293897e-24)
(0.02352474450308923 -0.02427821396124042 6.49127318175285e-24)
(0.02544077820684246 -0.02392308791040637 -6.149340330086855e-24)
(0.02669645218927819 -0.02289383117657248 -4.218381808680037e-19)
(0.02732703014668545 -0.02133935517837972 5.200960561090785e-19)
(0.02854901369756777 -0.0201130418595542 3.537718055214947e-19)
(0.03359643451838436 -0.02110422852723528 0)
(0.04214549714560983 -0.0234769450333897 3.774480970969469e-19)
(0.05066981285801488 -0.02551003245250506 0)
(0.05439280574696168 -0.02446348294852655 -9.537940321022204e-23)
(0.05071771510183416 -0.02366841345711272 0)
(0.001993595158273203 -0.004797882044191272 -7.259052610027907e-20)
(0.006082525318074294 -0.01289368959961528 -1.159457182685453e-19)
(0.01011247937839813 -0.019070631266843 1.249850136674603e-19)
(0.01382019843378852 -0.0233495341595097 4.034836711594411e-24)
(0.01704170792757254 -0.02593844778546293 0)
(0.0196718807732839 -0.0270788304333576 -4.903736005770506e-19)
(0.02180276100632226 -0.02722598222777254 6.466015959941195e-24)
(0.02367457322315728 -0.02686232337266749 -5.543300352083926e-24)
(0.02548274094747306 -0.02631095539354176 1.618793853756431e-19)
(0.02711566943339015 -0.02551050285919695 9.451337252689973e-24)
(0.0282924649212723 -0.02427819601308238 1.657196879304494e-19)
(0.02916176878614461 -0.02278479039959437 -2.124020140581729e-19)
(0.03098009110742541 -0.02181610857405932 -6.180137855728285e-19)
(0.03646665989798668 -0.02287112530217961 3.584494813962221e-19)
(0.04489984094258989 -0.02496493720655416 -6.650708150813132e-19)
(0.05260692406167267 -0.02645696997562215 1.367406852948926e-19)
(0.05533993149197885 -0.024955674291836 0)
(0.05093732426476716 -0.02393258442251566 -8.169784266474311e-23)
(0.001945876515125595 -0.005386186719518504 7.283675233726814e-20)
(0.006175651916629137 -0.01487127761554025 1.163163963894381e-19)
(0.01056725697590434 -0.02241477472741612 1.253324407117533e-19)
(0.01473400721299122 -0.02780684070196426 0)
(0.01829632466420703 -0.03093796256043178 2.619227053096692e-19)
(0.02095717735040296 -0.03192782579608092 -7.142629191573236e-24)
(0.02272653016481216 -0.03131299992775572 1.937310982482174e-19)
(0.02404563321894671 -0.03005056904296704 -4.832912771761196e-24)
(0.02534674441002196 -0.02877638816361807 -1.348335937252884e-19)
(0.02680708814020556 -0.02768982180224125 -1.222961237107687e-19)
(0.02825928631194694 -0.02659720790927361 -1.19775911732413e-19)
(0.02942197264869878 -0.02525987801922047 -7.996886865864184e-24)
(0.03055816864895814 -0.02388171562667174 -1.721015990496496e-19)
(0.03300162576233757 -0.0232187594196463 2.623041483471486e-19)
(0.03890671751465888 -0.02435324017319279 -6.25423298874209e-19)
(0.0471114925893258 -0.02613962254581518 5.729531736531684e-19)
(0.05399614917046763 -0.0271277331421479 -1.154604066128896e-19)
(0.05589985276374625 -0.02528238474623095 1.366365828857322e-22)
(0.05093224714699143 -0.02410641802146014 -7.409132642227963e-20)
(0.001805126798361428 -0.005845484141759043 1.116186130782701e-24)
(0.006022720094441437 -0.01667825076938887 0)
(0.01072522388058007 -0.02584218155713346 0)
(0.01539834999836431 -0.03268550341331387 0)
(0.01950018453068429 -0.0368330356151188 -3.959193583538952e-24)
(0.02244139746976448 -0.03798625990747411 -2.264274138340839e-19)
(0.02407214539289175 -0.03671530940234011 9.940614746269632e-27)
(0.02488075420125501 -0.03431835792075897 4.316479546365741e-24)
(0.02553405073679114 -0.0319385685854998 1.160043541857661e-19)
(0.02643236273207865 -0.03002687192924298 -5.070964279938306e-26)
(0.02766469979382196 -0.02858654121553586 -5.786142373892539e-24)
(0.0290111526013331 -0.02731382410679928 1.903868410973715e-19)
(0.03019827524645672 -0.02593499119698602 1.059767558472069e-19)
(0.03159716469073759 -0.02469129006990587 1.409361306917718e-19)
(0.03462431992991181 -0.0243264921461718 2.201944776909327e-19)
(0.04089558204300266 -0.02553639492054979 2.680477110829571e-19)
(0.04880836465911335 -0.02701699200250075 -2.440454883448955e-19)
(0.0549305393869668 -0.02756962003558198 -9.56099877228475e-23)
(0.05614902456393362 -0.02547738784493104 3.939527581488364e-23)
(0.05073427588247543 -0.02420352843402073 6.685413381232758e-20)
(0.001568377587163492 -0.006082211778998871 -1.116176791013316e-24)
(0.005582286632056484 -0.01808133229381241 -1.170503224907774e-19)
(0.01045484081558978 -0.02896525711491785 -1.928290785583248e-24)
(0.01562624831107434 -0.03767512351060046 4.064854280899476e-24)
(0.0203794464092877 -0.04329418397017631 0)
(0.02387973316342055 -0.04515334603202086 -1.110365830566316e-19)
(0.02567736250042173 -0.04351963342442229 -5.215484165226434e-24)
(0.02622059695005565 -0.04004616983291252 0)
(0.02628006811041976 -0.03629335695953263 1.031060976305632e-19)
(0.0264715313701728 -0.03314327462183946 -8.738395505310781e-20)
(0.02710018746266413 -0.03080483099694717 1.582543175946339e-19)
(0.0281846127522541 -0.02913399244457804 4.64648872121148e-24)
(0.02947288215861061 -0.02775549869297341 -7.810648289759635e-20)
(0.03070740000960502 -0.02637659700008056 3.363757050899581e-25)
(0.03235481166655284 -0.02527152160726506 -1.176341304326057e-19)
(0.03589467100946781 -0.02517075088058379 -2.099616402831863e-23)
(0.04245949833809588 -0.02643681379639728 2.282452326048603e-19)
(0.05005281242541459 -0.02763232967284003 1.014429598413078e-22)
(0.05549648932775682 -0.02782623848665413 8.397961051705692e-20)
(0.05614152156493495 -0.02556447485686489 -7.117921335705112e-20)
(0.05036408555265622 -0.02423232954180274 0)
(0.001253286691583896 -0.006021458764641266 -7.338880248426031e-20)
(0.004847274404061323 -0.01879628686466759 -8.922180919636901e-25)
(0.009685805952002175 -0.03138192839746756 1.266490060119683e-19)
(0.01523082251533919 -0.04221868082636809 -4.075493559571242e-24)
(0.02068689167870494 -0.04991264965617875 1.306836757893592e-19)
(0.02495191436778713 -0.05306328984143662 3.38474784802113e-24)
(0.02726722160398929 -0.05162805715030084 1.846310879560196e-25)
(0.02788384493904572 -0.04733202372784213 0)
(0.02760144369013974 -0.04222120510858615 -9.432128590691687e-20)
(0.02714460356821824 -0.03754028140894176 -7.787209578366799e-20)
(0.02701965689472188 -0.03386609281144224 6.859266135564894e-20)
(0.02746301668842477 -0.03123793760887784 -3.892396266988753e-24)
(0.02844956969926007 -0.02941723670062136 -7.721021447699175e-24)
(0.02971034805537879 -0.02798371607721627 0)
(0.03100783744175778 -0.02663418961077102 -7.513032365031718e-20)
(0.03288976323447352 -0.02566720136141268 1.002932465402004e-19)
(0.03686774260118185 -0.02578949692767192 -1.572346996709512e-19)
(0.04364853876119572 -0.02708603793244832 -3.896827744559238e-19)
(0.05091637935679615 -0.02802590121437182 -8.695200909260679e-23)
(0.05576228420573145 -0.02793180621250262 1.22253770449768e-24)
(0.05591327502881776 -0.02555917399815288 1.279623075285093e-19)
(0.04983493536080844 -0.02419753535468866 1.118878763146223e-22)
(0.0008914397764457565 -0.00559199468740774 5.602682703282616e-25)
(0.003872464616857104 -0.0185931999210239 -9.180185544070205e-25)
(0.008408792021465543 -0.03260644721491928 -1.941381842512667e-24)
(0.01411105757955565 -0.04573380421647559 2.058980616381198e-24)
(0.02018183915033103 -0.05597501084950261 4.03782051960433e-24)
(0.02535667401888893 -0.06123729331527058 -6.787386808056179e-24)
(0.02849161168091317 -0.06067220621831031 0)
(0.02957016203868065 -0.05607975606987449 3.901922792456434e-24)
(0.02929884487673073 -0.04982358580111924 -2.709601890180818e-24)
(0.02844730476931902 -0.04359391833769345 7.144219154641143e-20)
(0.02763036158394977 -0.0382735998114991 3.753353097945524e-24)
(0.02727869019619302 -0.03423194449434717 -1.42589151062588e-25)
(0.0275892198407061 -0.03140341129163191 -1.0760110564143e-19)
(0.02851048707642204 -0.02948836919002803 0)
(0.02976534199872926 -0.02803717131291695 -6.993067751690691e-24)
(0.03113829735741707 -0.02674018252526772 8.007317810045817e-24)
(0.03324406020795457 -0.02591024572001125 0)
(0.03759342008589255 -0.02621725695525043 1.560132518431486e-26)
(0.04451802916264908 -0.02751893699642953 3.355848286559198e-19)
(0.05146396030251742 -0.02823400463304874 0)
(0.05577704097241958 -0.02791065185465887 1.172040763046434e-24)
(0.0554867590871562 -0.0254706412920605 -5.859369466391057e-20)
(0.0491553489178047 -0.02410048416794179 5.431537192027112e-20)
(0.0005216592829153885 -0.004680804358554073 -3.676988993925612e-20)
(0.002756823615780918 -0.01726163001286173 0)
(0.006718615622928263 -0.032241390684964 6.374255974171844e-20)
(0.01225580526085251 -0.04752292203103298 -1.359192599349942e-19)
(0.01872706772754192 -0.06071511092621187 0)
(0.02480756042656045 -0.0688576908092647 3.521248514071072e-24)
(0.02900755028789211 -0.07014165284586128 -8.464690129060885e-20)
(0.0309094435553541 -0.06592900124630963 -3.605315672764827e-24)
(0.03105250973436362 -0.05900436747084731 8.617298565073714e-20)
(0.03016696627293434 -0.05140726089006181 -4.112349877374192e-24)
(0.02891279909321424 -0.04439951739470617 5.658684339330918e-20)
(0.02783047982806484 -0.03862134062403048 0)
(0.02730780213285628 -0.03431443455727052 -4.731191748210995e-20)
(0.02752000345591665 -0.03134756777851574 4.643435858537299e-20)
(0.02839905217567688 -0.02937948963809229 1.159163703299249e-23)
(0.02966479825616697 -0.02794040311367115 5.078322761378963e-20)
(0.03112461019439971 -0.0267157452226835 0)
(0.03344717659094879 -0.02602266450179753 -1.888518436044361e-23)
(0.03811192155335558 -0.0264817385323129 -5.771627667425586e-23)
(0.04511799086721295 -0.02776687929486934 -1.462287714655716e-19)
(0.05174739405917696 -0.02828535564367759 2.385921294347719e-26)
(0.0555738314978307 -0.0277787824922845 -5.869786309343116e-20)
(0.05487457088729793 -0.02530311332019504 1.061356347095829e-22)
(0.04830126189059515 -0.02392511275377259 -4.560812256705305e-24)
(0.000204693687982742 -0.003194279879380388 -3.679444041940392e-20)
(0.001620680967119685 -0.01446923245017968 -5.199911246150205e-26)
(0.00478883244679904 -0.02993585569304576 -1.949347777207429e-24)
(0.00980078648111311 -0.04700444311009612 -6.851101021290387e-20)
(0.01630298451774089 -0.06321444045909176 2.773376231281338e-19)
(0.02312244202689277 -0.07500217254045873 0)
(0.02849776253943031 -0.07918537066520981 0)
(0.03152972507453192 -0.07635942427855823 -3.710762666117653e-24)
(0.03247895042575216 -0.06941178675926155 5.251960260558015e-24)
(0.03197020491813136 -0.06088449306878027 -3.272751172595822e-20)
(0.03064547082089949 -0.05234881875473193 3.27286746329431e-24)
(0.0290884339148754 -0.04477575211019917 -4.933378796363225e-25)
(0.02779928420908193 -0.03865816611073904 4.280539866486573e-20)
(0.02714238060553098 -0.03415743605221409 0)
(0.02728087609077055 -0.03109879567644195 4.101516629141726e-20)
(0.02813562002016736 -0.029110829183563 4.249756552540149e-20)
(0.02942663908487411 -0.02770926461057201 2.393031765846089e-25)
(0.03098443565599899 -0.02657480081916628 5.29070378573929e-20)
(0.03351978815612593 -0.02601939742668145 1.701568488715111e-23)
(0.03845380280426866 -0.02660370505197879 2.560017583086264e-23)
(0.04548905032865138 -0.02785506413920016 -1.292546249608244e-19)
(0.05180486034659421 -0.0282007424308392 5.945342143534108e-23)
(0.05517347180831719 -0.02754576145267622 -1.053658219849585e-22)
(0.05408249960968649 -0.02505763494093029 5.13975835931439e-20)
(2.891803495542819e-05 -0.001727239770935845 1.757977046208795e-26)
(0.0006461752373283962 -0.009941036030033688 5.898554093611184e-20)
(0.002828839858014986 -0.02513975008802007 6.399140147997777e-20)
(0.007000430304807429 -0.04368307340624543 0)
(0.01307644984560143 -0.06267362280132287 7.117214950900057e-20)
(0.02025488427035401 -0.0785419536062831 -1.281970385299087e-19)
(0.02673850175275514 -0.08679861754354348 0)
(0.03109688308063136 -0.08652785206962456 3.912538890578942e-24)
(0.03318659216625349 -0.08052293844300486 4.419245689206938e-20)
(0.03346471014278825 -0.07168160757969497 -1.997364664454865e-24)
(0.03248576469010039 -0.06202693035438184 -3.169775726591495e-24)
(0.03082566455224644 -0.05280275118567131 0)
(0.02902679501033012 -0.04480277983361296 -3.967362304581056e-20)
(0.02756922522265408 -0.03842864657743638 -3.730527800996456e-20)
(0.02680434641982567 -0.033787927703278 3.646576229704627e-20)
(0.02688826892225544 -0.03067503808676662 -7.389727731263732e-20)
(0.02773382459222953 -0.02869548611947575 -3.868524348737293e-20)
(0.02906328951188197 -0.02735420465972172 -4.202999516044869e-20)
(0.03073024794054201 -0.0263265599924764 -9.72110165537551e-20)
(0.03347655160440275 -0.02591043060532754 -6.372096014304269e-20)
(0.03864159058874029 -0.0265980426243139 0)
(0.04566203560795355 -0.02780223093851083 1.157623142039236e-19)
(0.05166268026903344 -0.0279940312801617 -5.404902391264196e-23)
(0.05458771698290406 -0.02721623481020215 -9.834943487895212e-23)
(0.05310803356796462 -0.02473100829867109 -4.828886922021597e-20)
(-2.985662631168212e-05 -0.000970544377448414 -9.218194903274882e-21)
(9.76870359832552e-05 -0.005401532311160404 0)
(0.001146178976393648 -0.01739357410162338 0)
(0.004161077504808626 -0.03679717441024812 6.935670466165036e-20)
(0.009380339389900731 -0.05842185517773121 0)
(0.01637089774898529 -0.07841124754291652 0)
(0.02364681654738617 -0.09172120792726858 0)
(0.0293603404541341 -0.09541429774745991 2.144038363615194e-24)
(0.03283211030697614 -0.09151243590562193 0)
(0.03424522710730493 -0.08327529442796458 -6.704866773081207e-20)
(0.03403564749345035 -0.07309716652448592 0)
(0.03269349212927762 -0.06261003118927019 0)
(0.03076061810227298 -0.05285914624147473 0)
(0.02875935156592522 -0.04452870342194992 4.226708039985551e-24)
(0.02716046800805447 -0.03796041098487506 -3.321426362940803e-20)
(0.02630789992304175 -0.03322313224363246 -3.297299437658222e-20)
(0.02635328931300365 -0.03008802240997122 6.761947780251497e-20)
(0.02720326703352158 -0.02814217468388501 -3.571385443827519e-20)
(0.02858378971474982 -0.02688222789992661 0)
(0.03037119855670091 -0.02597709444289928 9.041313358750059e-20)
(0.03332799770157954 -0.02570225377949526 5.892286941329625e-20)
(0.03869153285264953 -0.02647494801604622 8.612284618970482e-20)
(0.0456590862128782 -0.02762135266476884 5.141551865597231e-23)
(0.05133758485419185 -0.02767339257894321 -9.979663390241372e-23)
(0.05382140644828667 -0.02679084763995856 9.234886774014907e-23)
(0.05196414052774961 -0.02432066664390102 0)
(-4.404718403853483e-05 -0.000567091230476594 1.404713749285127e-25)
(-8.675185637996158e-05 -0.002955984147038876 -1.478632728939822e-20)
(0.0001845364465651039 -0.009514981985278052 6.127429528438745e-26)
(0.00171769209109653 -0.02569239417898419 0)
(0.005623288444698549 -0.04947121495216261 -7.431898272090713e-20)
(0.01185207943140727 -0.0736647855818854 0)
(0.01935464394774696 -0.09265394891070837 0)
(0.02621184706542071 -0.1017323231442626 -7.95251187320505e-20)
(0.03114935607415353 -0.101371510945042 -3.147669921090549e-24)
(0.0339626550000913 -0.09485650083907736 -2.163148842115051e-24)
(0.03487999481765586 -0.0850369747091191 2.655369640563161e-20)
(0.03429037582153605 -0.07386833725338375 0)
(0.03264835416739617 -0.06273822999460908 1.829073569448397e-20)
(0.0304821875335567 -0.05257240434644588 0)
(0.02830573687725329 -0.04398363227624641 0)
(0.02658615456742985 -0.03727134248713252 6.021598006008641e-20)
(0.02566274507605824 -0.03247450805299863 0)
(0.02568389136597452 -0.02934569388923311 -3.135824922161232e-20)
(0.0265511183047405 -0.0274568499525792 3.336354195117613e-20)
(0.02799508772723866 -0.02629808014199943 0)
(0.02991428335477351 -0.02553031143616003 2.124996801188298e-23)
(0.03308169463301586 -0.02539874430359915 5.511011959614431e-20)
(0.0386150158467176 -0.02624090621001465 -7.955736060502004e-20)
(0.04549508463612788 -0.02732050499920711 9.71908578088658e-20)
(0.05083884263991584 -0.02724208443334923 -9.518844944053449e-20)
(0.05288992966647778 -0.02627378664634977 -4.45985460152641e-20)
(0.05064513468272192 -0.02382521608360287 4.503142978989024e-20)
(-2.743887396032837e-05 -0.0002202370054922449 3.667020962975938e-20)
(-0.0001263584747151531 -0.001657597059865288 -4.495475333131566e-25)
(-0.0001425806207471197 -0.005104026561381808 1.607895798781335e-20)
(0.0002946149904514462 -0.01418058206424776 -6.66816822313891e-26)
(0.002371565191992068 -0.03495064576767081 3.760793431884259e-20)
(0.00719818091332363 -0.06298155799719624 0)
(0.01423423724616536 -0.08828664806170572 6.747032333899615e-20)
(0.02175001581256454 -0.1040964318798153 -2.856700071491927e-24)
(0.02801717657433653 -0.1088402438493098 4.99885416332625e-24)
(0.03234078871611551 -0.1054313320174522 2.380383064506473e-24)
(0.03466556646634633 -0.09705080697334623 1.707281669920685e-24)
(0.03519395393527323 -0.08605713884786231 0)
(0.03428664366578518 -0.0741187065841811 0)
(0.0323834455264939 -0.06247494740712067 -1.598278187933474e-20)
(0.03001031283190715 -0.05197687420265878 0)
(0.02767880775076147 -0.04318732906006104 -2.805065386220529e-20)
(0.02585534812902546 -0.03637359375237666 -2.768860254559582e-20)
(0.02487595441784355 -0.03155004587930543 2.814029656685647e-20)
(0.02488617313829865 -0.0284536559501051 2.940492812943065e-20)
(0.02578310456924543 -0.02664369180976431 -3.148431716823575e-20)
(0.02730284919179124 -0.02560497549314433 3.19309654563799e-28)
(0.02936507780941429 -0.02498855819115322 -4.027941778952322e-20)
(0.03274304273550674 -0.02500176635866237 -1.040248634393397e-19)
(0.03841959463209466 -0.02589936239085987 3.632103205962196e-23)
(0.04517910352126648 -0.0269032896278839 2.750958371950852e-24)
(0.05017595671219767 -0.0267052089232282 8.914790296786614e-20)
(0.0517895239630809 -0.02565963693514156 4.310803564011888e-20)
(0.04913257110303714 -0.02322800365958097 -4.502135463835205e-20)
(-6.909685026517445e-07 -4.818271351052962e-06 0)
(-7.272347891190947e-05 -0.0005972280957401994 5.884171610990131e-20)
(-0.0002058211159626869 -0.002758616105300246 -9.778643877943041e-25)
(-0.0001966322248504604 -0.007456640136688153 1.751323715816504e-20)
(0.0004337038831032331 -0.01951544094341272 0)
(0.003114048786276672 -0.04519801052766301 -7.99436442629861e-20)
(0.008820046487641392 -0.07672911328533213 1.15548858420409e-24)
(0.01630638135032062 -0.1009438286840081 -5.69643858841866e-20)
(0.02351698650637278 -0.112563503457856 -3.563711563223176e-20)
(0.02925128440233491 -0.1137753422258741 4.465933337142936e-20)
(0.03310862976267732 -0.1081573737746219 0)
(0.03504782191497247 -0.09839264530339407 0)
(0.03524786519955684 -0.08648356281553984 -2.265707738821574e-24)
(0.03405931964190342 -0.07392367039056624 -1.940858610895092e-24)
(0.03191951782168837 -0.06186047643744071 -3.485844162705311e-24)
(0.0293580803389799 -0.05109534707875472 0)
(0.02688747864102257 -0.042153482322704 2.582029997202224e-20)
(0.02497474327109928 -0.03527590687750891 1.259031945293699e-23)
(0.02395309095083753 -0.03045563751189251 -2.645239151605232e-20)
(0.02396518160338748 -0.02741604942921106 -2.783099173522519e-20)
(0.02490413328049466 -0.02570571426010214 2.995459208382317e-20)
(0.02651197536531325 -0.02480504641835925 -1.618262339432571e-23)
(0.02872816407747385 -0.02435295880158103 0)
(0.03231581487488242 -0.0245115463182366 4.950098454640421e-20)
(0.0381098052924247 -0.02545092714712428 0)
(0.04471472268513586 -0.02637213692191234 -1.697736023527521e-19)
(0.04935819800483387 -0.02606112146759859 1.668160732264707e-22)
(0.05049706316195355 -0.02493374721146743 0)
(0.04742051448680926 -0.02251597551095023 -7.043885460795225e-22)
(1.557905882444013e-05 6.944762583367789e-05 7.301881888361214e-20)
(1.024999132292173e-05 5.206187966389189e-05 0)
(-0.0001095705518135634 -0.0009274137673851477 -6.40005348916594e-20)
(-0.0002822561738750417 -0.003883309077582576 3.495677750647499e-20)
(-0.0002478353752370354 -0.01006480291611118 -1.905125576558163e-20)
(0.0006083439189858487 -0.02561935210018114 -1.021645136169408e-20)
(0.003938184291449593 -0.0562596362122887 1.025188613469969e-24)
(0.01037298190527702 -0.08970303709113694 6.917501583122663e-20)
(0.01795216916000449 -0.1109473578887687 0)