/*--------------------------------*- C++ -*----------------------------------*\
| =========                 |                                                 |
| \\      /  F ield         | OpenFOAM: The Open Source CFD Toolbox           |
|  \\    /   O peration     | Version:  2006                                  |
|   \\  /    A nd           | Website:  www.openfoam.com                      |
|    \\/     M anipulation  |                                                 |
\*---------------------------------------------------------------------------*/
FoamFile
{
    version     2.0;
    format      ascii;
    class       volVectorField;
    location    "518";
    object      wallShearStress;
}
// * * * * * * * * * * * * * * * * * * * * * * * * * * * * * * * * * * * * * //

dimensions      [0 2 -2 0 0 0 0];


internalField   uniform (0 0 0);

boundaryField
{
    airfoil
    {
        type            calculated;
        value           nonuniform List<vector> 
117
(
(-6.881157732058162e-05 3.131727953029979e-05 3.86162883561284e-21)
(-7.822504469312609e-05 3.510353287059064e-05 -5.843084295843606e-26)
(-6.726306568602602e-05 3.435764524710051e-05 3.820094871759183e-21)
(-5.231129079729109e-05 2.950752135973653e-05 7.645428405359141e-21)
(-4.459116844331932e-05 2.818540109113141e-05 -7.646596965538291e-21)
(-4.476835149415465e-05 3.136938259985146e-05 -5.836153557926321e-26)
(-5.393178045526153e-05 4.172461718779512e-05 3.445973790828895e-28)
(-6.340180196655549e-05 5.400503634373166e-05 -7.65535764965559e-21)
(-6.977140461297868e-05 6.53372592487776e-05 -7.655639604757288e-21)
(-7.343023595461889e-05 7.556238986591493e-05 -5.841648627315737e-26)
(-7.600098536610116e-05 8.596893640406613e-05 7.657457745966859e-21)
(-7.886555933533448e-05 9.818518028924069e-05 -8.466802266878549e-39)
(-8.278164605522347e-05 0.0001136277148468428 7.668878259244434e-21)
(-8.813105705827128e-05 0.0001338271257667203 7.68113430007004e-21)
(-9.435804837287967e-05 0.0001591551033422706 0)
(-0.0001004620358107991 0.0001892844112537211 -3.860051949456887e-21)
(-0.0001049996419163632 0.0002225285753210507 -5.899524428679662e-26)
(-0.0001066749474993113 0.0002568445179843615 3.886046061091312e-21)
(-0.0001041276331612858 0.0002883284215723229 -3.899189347999458e-21)
(-9.660313543999151e-05 0.0003129099679717624 -5.97546690854552e-26)
(-8.394802272544445e-05 0.000325579247320723 5.975173231241622e-26)
(-6.710314212535705e-05 0.0003223216258289216 3.92877194518526e-21)
(-4.776307586287507e-05 0.0002993263868559237 -2.999221787204801e-26)
(-2.800663887118211e-05 0.0002505508059131568 1.968417010761044e-21)
(-1.10645127936049e-05 0.0001709809619744938 1.969745962601121e-21)
(-1.623006741137567e-06 9.245473935747144e-05 -9.411113454365404e-28)
(1.564727603247411e-06 5.195224958452027e-05 4.934791947899467e-22)
(2.332047897813474e-06 3.035779097881952e-05 -7.51990282756637e-27)
(1.447383238303119e-06 1.179155357062981e-05 -1.963097313928798e-21)
(2.533411958249295e-08 2.596190922787642e-07 4.591774807899561e-41)
(-8.346913315566724e-07 -3.717708426060784e-06 -3.908931239527338e-21)
(5.845472831814305e-07 2.096876132055861e-06 3.903331858231672e-21)
(6.104003147668997e-06 1.871927525667071e-05 3.900533101201495e-21)
(1.646114100889083e-05 4.349479716798892e-05 -5.950035091719946e-26)
(3.116473816919443e-05 7.196597416366809e-05 5.949821685528693e-26)
(4.84216704017269e-05 9.88199571553506e-05 -3.897809982468877e-21)
(6.449552038775299e-05 0.0001173466145693812 1.836709923159824e-40)
(7.363642720541057e-05 0.0001202600980116923 -3.673419846319648e-40)
(7.321286203760607e-05 0.0001078522021883724 -7.758843994221921e-21)
(6.971215578189473e-05 9.292655772946912e-05 1.182554398934741e-25)
(7.27233506128694e-05 8.792797189477291e-05 -7.741526860333454e-21)
(8.284953091093038e-05 9.104318736341045e-05 5.889103557440508e-26)
(9.524549951125889e-05 9.521488934513951e-05 -5.888888683990266e-26)
(0.000120977275071628 0.000109933901000364 5.844403788083273e-26)
(0.0001719070688059202 0.0001419025161101386 -7.633364284249569e-21)
(0.0002469000402484552 0.0001848924344048377 -7.499306374789987e-21)
(0.0002078487524061742 0.0001410629124201103 4.998366599183723e-26)
(-5.41560617506699e-05 -3.25430060793745e-05 -6.414044391515753e-21)
(-0.0004335090282361696 -0.0002372804105877869 0)
(-0.0007965270815364626 -0.000389233093471713 3.565305259331814e-26)
(-0.001098304059936052 -0.0004744636397647792 -2.205701781284394e-21)
(-0.001340861294601316 -0.0005059534338861826 -4.049097869900129e-21)
(-0.001534352269258034 -0.0004979013601041778 1.917842898544635e-21)
(-0.001686833077683928 -0.0004608729589309308 1.879609496072907e-21)
(-0.001801805754439605 -0.0004021753286427478 1.904628391610946e-21)
(-0.001878833357751462 -0.0003273210043290013 9.938064561331322e-22)
(-0.00191145707735885 -0.0002409037709271148 1.061907314736981e-21)
(-0.001888348061110442 -0.000148074076109862 -4.61448112650513e-27)
(-0.0018115641161715 -5.63663930959433e-05 5.252069148772039e-27)
(-0.001721464947536496 2.7696846066818e-05 4.983297648029168e-27)
(-0.001672453146294287 0.0001059813289605344 7.740272110816312e-22)
(-0.001648643014940783 0.0001828359841464519 -4.591774807899561e-41)
(-0.001614624288256451 0.0002565839979413372 -1.885377936909011e-21)
(-0.001558582840363257 0.0003236264582787444 2.065561970035056e-21)
(-0.001480002996459254 0.0003808440242414182 5.864916216425545e-27)
(-0.001379970849121886 0.0004253477730567587 -9.723062971658617e-21)
(-0.001260003036209361 0.0004543945033277235 -7.689786532626201e-26)
(-0.001122000925595295 0.0004654380137696082 -2.094223241890912e-37)
(-0.0009683244236917579 0.0004562374732191437 0)
(-0.0008015558862165452 0.0004248339022114142 6.142314164328744e-21)
(-0.0006244897603621725 0.000369562684393123 7.483318323482932e-27)
(-0.0004401125969814495 0.0002890932160061081 -1.312542965738371e-20)
(-0.0002514604491821862 0.0001823757444533669 1.337954911970812e-20)
(-6.223145952679778e-05 4.915003702010369e-05 0)
(0.0001238009737254258 -0.0001103294463524325 -5.05588485928394e-42)
(0.0003039960586813706 -0.000296367283181634 -1.000359527536884e-25)
(0.0004749060013284274 -0.0005082131212064224 1.293116676581583e-20)
(0.0006329098593576898 -0.0007444060358167012 -1.239190978879932e-20)
(0.0007749698928188751 -0.001003511946281287 1.166174397863038e-20)
(0.0008980401152475156 -0.001283502745322708 -1.07328669858472e-20)
(0.0009993193635783814 -0.001581977003333754 -1.469367938527859e-39)
(0.001076251948829992 -0.001896118217792244 8.257306647749012e-21)
(0.001126656779018582 -0.002222852272675692 -4.444158887781018e-26)
(0.001148877814610424 -0.002559181610651193 -4.940944376878931e-21)
(0.001141747877901339 -0.002902335436354252 1.484204028954002e-21)
(0.001105930664507657 -0.003254079493663579 -3.955224175030171e-22)
(0.001051259317262458 -0.003650419046962064 7.90830029847167e-22)
(0.0009903912528692839 -0.004170279411138096 -1.091237774688142e-26)
(0.0009049536205511429 -0.004810019948184779 -1.71516274297811e-21)
(0.0007613063621891951 -0.005450465645740515 -3.730817031418393e-41)
(0.000554526229760835 -0.006036997807012675 -1.598134599937063e-21)
(0.0002926530728977365 -0.006584426579812563 -1.37869823584055e-26)
(-1.96759570301822e-05 -0.007104287417621189 -7.503552559860461e-23)
(-0.0003801516698913759 -0.007603033105002184 -4.227571033173925e-21)
(-0.000787097422716359 -0.008077095889362534 -6.483475559262276e-21)
(-0.001237737180440188 -0.008516791917915302 7.259595971289205e-37)
(-0.001727436142198458 -0.008910094211811517 2.407430761710036e-42)
(-0.002250669407390722 -0.009250026894508741 -1.440721471453201e-25)
(-0.002800844317601201 -0.009530091752046173 1.969464562767686e-20)
(-0.003370054712988651 -0.009743044104731712 2.128135019706301e-20)
(-0.003948372372765761 -0.009880248415455824 3.361227900513704e-25)
(-0.004523808817755259 -0.009933422360850836 -1.136733314260292e-41)
(-0.005083007547393607 -0.009896075871306257 5.539946261891745e-37)
(-0.005610000077730241 -0.009760734147709577 -1.034429534504373e-24)
(-0.006083963626284328 -0.009516985194372711 8.422104614061135e-25)
(-0.006475980664060977 -0.009149687097762874 1.136775157375014e-19)
(-0.006732027628382388 -0.008620097954603483 1.763241526233431e-38)
(-0.006774365491026767 -0.007878835351957086 4.380508693152775e-25)
(-0.006643137497015247 -0.007153137416484481 -8.907277057771327e-27)
(-0.006662123991410592 -0.00679390084929978 -5.380924862182772e-20)
(-0.006824235911669714 -0.006596643904283966 -5.363944527993392e-20)
(-0.006918302124901527 -0.006350215706718801 -1.310676201166851e-36)
(-0.006972759822429368 -0.006087312628957615 -4.073798145093809e-25)
(-0.007012537873525443 -0.005831694161061443 -5.333857643306829e-20)
(-0.007041020171676919 -0.005585597217523938 -5.317401493578282e-20)
(-0.007055729849752505 -0.005346363052108985 5.298145177832506e-20)
(-0.007056858230781983 -0.005113721577383259 4.014024631776189e-25)
)
;
    }
    farfield
    {
        type            calculated;
        value           uniform (0 0 0);
    }
    side
    {
        type            empty;
    }
    procBoundary0to1
    {
        type            processor;
        value           uniform (0 0 0);
    }
    procBoundary0to2
    {
        type            processor;
        value           uniform (0 0 0);
    }
    procBoundary0to3
    {
        type            processor;
        value           uniform (0 0 0);
    }
}


// ************************************************************************* //
