# Solver information    
# Time                  	U_solver                	Ux_initial              	Ux_final                	Ux_iters                	Uy_initial              	Uy_final                	Uy_iters                	U_converged             	k_solver                	k_initial               	k_final                 	k_iters                 	k_converged             	p_solver                	p_initial               	p_final                 	p_iters                 	p_converged             	omega_solver            	omega_initial           	omega_final             	omega_iters             	omega_converged         
2                       	smoothSolver	9.9999645688414829e-01	5.4899156394301728e-02	4	9.9999767712626952e-01	5.6041852161358888e-02	4	false	smoothSolver	9.9999999999925149e-01	4.5900314151614159e-06	1	true	GAMG	1.0000000000000000e+00	9.6396265294926800e-02	80	true	smoothSolver	2.0376369473692538e-02	3.0278345718659078e-08	1	true
3                       	smoothSolver	9.3569928836672965e-05	5.0589872297567870e-06	2	1.1118814809509099e-04	5.9521043610086442e-06	2	false	smoothSolver	2.1617666582009051e-01	3.4186157100441378e-06	1	true	GAMG	1.5056367333870860e-03	1.4302035148064049e-04	50	true	smoothSolver	4.1528093305959208e-03	2.0792896921695930e-08	1	true
4                       	smoothSolver	1.8438467653251131e-05	7.9718350868957605e-07	2	3.4263820476574018e-05	1.4731493806816321e-06	2	false	smoothSolver	5.9429709025858729e-02	3.3999245113368302e-06	1	true	GAMG	3.3396844239572332e-04	3.2614603965464558e-05	56	true	smoothSolver	1.2222016916548090e-03	2.1156553838995410e-08	1	true
5                       	smoothSolver	1.0957477589071320e-05	3.7848491238306220e-07	2	1.6853229560348360e-05	6.6726376854789026e-07	2	false	smoothSolver	1.7797452565404680e-02	4.0234877328416777e-06	1	true	GAMG	5.4200653127000665e-04	5.2267841204359723e-05	62	true	smoothSolver	4.0165850126013002e-04	2.5362219449466102e-08	1	true
6                       	smoothSolver	8.3793432210970348e-06	2.7575517393706957e-07	2	1.2206490847168120e-05	3.9084052398480748e-07	2	false	smoothSolver	5.3056100112780068e-03	5.1268313640329509e-06	1	true	GAMG	3.1164887525497910e-04	3.1128860046086050e-05	51	true	smoothSolver	1.2120803853669840e-04	3.0931965703285408e-08	1	true
7                       	smoothSolver	7.4410334122696843e-06	2.1631476380855579e-07	2	9.5581960194695793e-06	2.9284144598408168e-07	2	false	smoothSolver	1.6417454289754500e-03	5.4197631909855727e-06	1	true	GAMG	2.7470555367265100e-03	2.6922593392514219e-04	42	true	smoothSolver	3.4013287026980811e-05	3.8646614162219308e-08	1	true
8                       	smoothSolver	5.8767007929375421e-06	1.7951415192815350e-07	2	7.4808090480176083e-06	2.2469086968049699e-07	2	false	smoothSolver	4.6739818585172051e-04	4.2460928536455917e-06	1	true	GAMG	7.0040978137272871e-04	6.6086367667212502e-05	44	true	smoothSolver	9.3353594041430835e-06	4.0398908565270349e-08	1	true
9                       	smoothSolver	4.8981199880941704e-06	1.7305444016681511e-07	2	6.0767851753910134e-06	1.9753378514881989e-07	2	false	smoothSolver	1.8645816677803021e-04	2.6761643817846250e-06	1	true	GAMG	1.9494367194900801e-04	1.9320275706784502e-05	37	true	smoothSolver	2.8117903594188211e-06	3.1838199823847449e-08	1	true
10                      	smoothSolver	4.7094490728821318e-06	1.7897827226031550e-07	2	5.4663259054611687e-06	1.8701575489410121e-07	2	false	smoothSolver	6.5837491911597312e-05	1.6934704448964780e-06	1	true	GAMG	1.9099564081854640e-04	1.8463083457687341e-05	32	true	smoothSolver	1.0697244298163870e-06	2.0487207539605029e-08	1	true
11                      	smoothSolver	4.0746705133204684e-06	1.6581765305336191e-07	2	4.7800459254258242e-06	1.7363984623465500e-07	2	false	smoothSolver	3.6942226584731243e-05	1.1405536039943369e-06	1	true	GAMG	1.7595132120506261e-04	1.6893701874671720e-05	42	true	smoothSolver	4.9356170753718547e-07	1.3407362084258700e-08	1	true
12                      	smoothSolver	3.9056451217279571e-06	1.6676254371525281e-07	2	4.4605923418701453e-06	1.7209379935982459e-07	2	false	smoothSolver	1.8927461281522450e-05	8.1413779265472390e-07	1	true	GAMG	1.9292240771007471e-04	1.8166733054126429e-05	28	true	smoothSolver	2.6585370006133682e-07	9.3490877100657769e-09	1	true
13                      	smoothSolver	3.8627817194791657e-06	1.6673827576799401e-07	2	4.2772964939325659e-06	1.6875200514370789e-07	2	false	smoothSolver	1.3226087685292770e-05	6.0905499602721129e-07	1	true	GAMG	1.5681154662014631e-04	1.5247912626853449e-05	26	true	smoothSolver	1.6214953520951150e-07	6.9291641750732090e-09	1	true
14                      	smoothSolver	3.9317427119933117e-06	1.7308962671931591e-07	2	4.1607515409920467e-06	1.6906699934095359e-07	2	false	smoothSolver	9.0513068909924552e-06	4.7238713163527162e-07	1	true	GAMG	1.3446511311652779e-04	1.3272640743072709e-05	34	true	smoothSolver	1.0992041528938640e-07	5.3706430643117136e-09	1	true
15                      	smoothSolver	4.0317083379974422e-06	1.8121032334247699e-07	2	4.1187640108628174e-06	1.7100103318787879e-07	2	false	smoothSolver	6.9548847524600777e-06	3.7762605550475462e-07	1	true	GAMG	1.1184562167208220e-04	1.1159922887426940e-05	39	true	smoothSolver	8.0742366366701659e-08	4.3085095864685948e-09	1	true
16                      	smoothSolver	4.2047785424453566e-06	1.8895968365314891e-07	2	4.1946988862726466e-06	1.7389642192087479e-07	2	false	smoothSolver	5.3965981301046339e-06	3.0797167927532142e-07	1	true	GAMG	9.5453477404156188e-05	9.2646660917163547e-06	42	true	smoothSolver	6.2785556342837851e-08	3.5483210706743358e-09	1	true
17                      	smoothSolver	4.3128057558764176e-06	1.9589911731323911e-07	2	4.1777352998698978e-06	1.7741627673084110e-07	2	false	smoothSolver	4.3491313974363997e-06	2.5557929371181350e-07	1	true	GAMG	8.5444760979288878e-05	8.3835041396109854e-06	47	true	smoothSolver	5.0801410503163972e-08	2.9849433615782171e-09	1	true
18                      	smoothSolver	4.4187262780958727e-06	2.0020186784665239e-07	2	4.1726953232304090e-06	1.7984035922122921e-07	2	false	smoothSolver	3.5579064839013322e-06	2.1478251176074549e-07	1	true	GAMG	7.8222147812445088e-05	7.6093300883938670e-06	48	true	smoothSolver	4.2271477088551463e-08	2.5554533685576839e-09	1	true
19                      	smoothSolver	4.4984373052985530e-06	2.0369582061691451e-07	2	4.1487427962199156e-06	1.8151227137045459e-07	2	false	smoothSolver	2.9622850433816231e-06	1.8308676004180151e-07	1	true	GAMG	7.4445488067928639e-05	7.4375484058836066e-06	46	true	smoothSolver	3.5853778438970537e-08	2.2199036854595960e-09	1	true
20                      	smoothSolver	4.6174797309542497e-06	2.0816703663107299e-07	2	4.1615654002364068e-06	1.8444178686931531e-07	2	false	smoothSolver	2.4963242249967781e-06	1.5801494484827399e-07	1	true	GAMG	7.0630795756488149e-05	7.0194644619014252e-06	46	true	smoothSolver	3.0950567328963173e-08	1.9523649724444900e-09	1	true
21                      	smoothSolver	4.7345588144346671e-06	2.1292627814859360e-07	2	4.1903232848506842e-06	1.8787770121967779e-07	2	false	smoothSolver	2.1274986437115261e-06	1.3782816591570709e-07	1	true	GAMG	6.4465239050374290e-05	6.3837728295945563e-06	48	true	smoothSolver	2.7021202493162529e-08	1.7344356181731650e-09	1	true
22                      	smoothSolver	4.8567045937980410e-06	2.1738424309892759e-07	2	4.2386909228718049e-06	1.9150421075989810e-07	2	false	smoothSolver	1.8311492966646831e-06	1.2147360276185000e-07	1	true	GAMG	5.9839540300450980e-05	5.8421230340173581e-06	49	true	smoothSolver	2.3886541781323370e-08	1.5543111845191119e-09	1	true
23                      	smoothSolver	5.0062710303352793e-06	2.2106279540764530e-07	2	4.3350282977150420e-06	1.9492796817640869e-07	2	false	smoothSolver	1.5913429364408819e-06	1.0829515136929560e-07	1	true	GAMG	5.6250794111805791e-05	5.6034520643210081e-06	51	true	smoothSolver	2.1341760466358040e-08	1.4049770696246751e-09	1	true
24                      	smoothSolver	5.1030091538041186e-06	2.2399541353506241e-07	2	4.4033628025180449e-06	1.9803865516656401e-07	2	false	smoothSolver	1.3936645559005590e-06	9.7558074136584403e-08	1	true	GAMG	5.6638447516505788e-05	5.5888587434142253e-06	55	true	smoothSolver	1.9169965783002899e-08	1.2788371704056989e-09	1	true
25                      	smoothSolver	5.2173106448127062e-06	2.2490008602857111e-07	2	4.4721716984633556e-06	1.9996539552877790e-07	2	false	smoothSolver	1.2290210830585890e-06	8.8567500971254646e-08	1	true	GAMG	5.6084774566855093e-05	5.5851629979813637e-06	55	true	smoothSolver	1.7344666433897309e-08	1.1715280844936559e-09	1	true
26                      	smoothSolver	5.3158176736264012e-06	2.2547502802956491e-07	2	4.5753475826637122e-06	2.0257305406990270e-07	2	false	smoothSolver	1.0900176083009280e-06	8.0837330506351800e-08	1	true	GAMG	5.7876747933966882e-05	5.7436729156490007e-06	50	true	smoothSolver	1.5764767841518870e-08	1.0792213408428701e-09	1	true
27                      	smoothSolver	5.4073114425857136e-06	2.2494533548576789e-07	2	4.6486368650561346e-06	2.0436283209306360e-07	2	false	smoothSolver	9.7143526543790740e-07	7.3924033347047366e-08	1	true	GAMG	6.0855528323192580e-05	5.9504858942387251e-06	42	true	smoothSolver	1.4430548281286010e-08	9.9867587652563314e-10	1	true
28                      	smoothSolver	5.5047401561294567e-06	2.2408419995469030e-07	2	4.7495409865563213e-06	2.0639431295034361e-07	2	false	smoothSolver	8.7030911387642137e-07	6.7652576551236324e-08	1	true	GAMG	6.3819687639715602e-05	6.2585034935809818e-06	36	true	smoothSolver	1.3255966608199270e-08	9.2725416926489818e-10	1	true
29                      	smoothSolver	5.5910115755805569e-06	2.2245943430278371e-07	2	4.8569797501046601e-06	2.0827400466535321e-07	2	false	smoothSolver	7.8323801500809522e-07	6.1989191353104826e-08	1	true	GAMG	6.6660969788901191e-05	6.5222738016723870e-06	34	true	smoothSolver	1.2237804197560250e-08	8.6326431478529758e-10	1	true
30                      	smoothSolver	5.6718403770959137e-06	2.2008506670152690e-07	2	4.9728654172661967e-06	2.1032634252013299e-07	2	false	smoothSolver	7.0818624454142317e-07	5.6842591586575901e-08	1	true	GAMG	6.9399220762653239e-05	6.9275222949796088e-06	33	true	smoothSolver	1.1340296375481240e-08	8.0569689954245338e-10	1	true
31                      	smoothSolver	5.7870814638626703e-06	2.1729044527920549e-07	2	5.1445110981513901e-06	2.1252466340606159e-07	2	false	smoothSolver	6.4254931411865697e-07	5.2251086343787893e-08	1	true	GAMG	7.0562040188979646e-05	6.7764550929137262e-06	32	true	smoothSolver	1.0522491008175780e-08	7.5365599864103017e-10	1	true
32                      	smoothSolver	5.8586077781517961e-06	2.1380062891496890e-07	2	5.2874330994899258e-06	2.1546050475278690e-07	2	false	smoothSolver	5.8659651094866765e-07	4.8238107361709190e-08	1	true	GAMG	7.4377889163214678e-05	7.4267249043262628e-06	29	true	smoothSolver	9.7961044520325597e-09	7.0657987809589448e-10	1	true
33                      	smoothSolver	5.9217988916746517e-06	2.0973120236077029e-07	2	5.4360829892048426e-06	2.1769695147920201e-07	2	false	smoothSolver	5.3751875589766571e-07	4.4680401166692417e-08	1	true	GAMG	7.6963419488612495e-05	7.3369739844399141e-06	26	true	smoothSolver	9.1507482365507301e-09	6.6435786796688197e-10	1	true
34                      	smoothSolver	5.9839170160459561e-06	2.0562961891039600e-07	2	5.5083533564842812e-06	2.2004554018640369e-07	2	false	smoothSolver	4.9529722254541301e-07	4.1619236412543419e-08	1	true	GAMG	8.0365210713061590e-05	7.8902892719724855e-06	24	true	smoothSolver	8.5769659854872720e-09	6.2577268131466498e-10	1	true
35                      	smoothSolver	6.0677604745718592e-06	2.0337546303633090e-07	2	5.6421185250916514e-06	2.2302999968929440e-07	2	false	smoothSolver	4.5762059349199032e-07	3.8901083239736902e-08	1	true	GAMG	8.3296758082810498e-05	7.7372760723084030e-06	24	true	smoothSolver	8.0610744938118031e-09	5.9065982444515087e-10	1	true
36                      	smoothSolver	6.1433544675485593e-06	2.0065200686663380e-07	2	5.7811442310682696e-06	2.2639413244521861e-07	2	false	smoothSolver	4.2444287381483230e-07	3.6504529217293452e-08	1	true	GAMG	8.5771001520724860e-05	8.1658586611553576e-06	22	true	smoothSolver	7.5809108803424894e-09	5.5876093205393263e-10	1	true
37                      	smoothSolver	6.2042025465242138e-06	1.9844899990292500e-07	2	5.9245349737409060e-06	2.3035267441755750e-07	2	false	smoothSolver	3.9467950674793850e-07	3.4383243555541083e-08	1	true	GAMG	8.9136786524692525e-05	7.9526591306483341e-06	22	true	smoothSolver	7.1445482660364880e-09	5.2945287958258199e-10	1	true
38                      	smoothSolver	6.2664835385129939e-06	1.9767988530492970e-07	2	6.0776789984804317e-06	2.3489662805602579e-07	2	false	smoothSolver	3.6904549742107322e-07	3.2561349805761907e-08	1	true	GAMG	9.2677829777034702e-05	8.6176352823082897e-06	20	true	smoothSolver	6.7629112546075480e-09	5.0266721554876783e-10	1	true
39                      	smoothSolver	6.3044377167452858e-06	1.9611088214911160e-07	2	6.2347568887999501e-06	2.3977706540014418e-07	2	false	smoothSolver	3.4630080723784721e-07	3.0957405221610531e-08	1	true	GAMG	9.6625798971970470e-05	8.5944026994261931e-06	20	true	smoothSolver	6.4013175986278819e-09	4.7797580260472758e-10	1	true
40                      	smoothSolver	6.3350025107822446e-06	1.9505678604247289e-07	2	6.3933834608991528e-06	2.4500087660818092e-07	2	false	smoothSolver	3.2531075827408519e-07	2.9501772855692021e-08	1	true	GAMG	9.9915004205326837e-05	9.8174311292413188e-06	18	true	smoothSolver	6.0872393228380038e-09	4.5536820518819152e-10	1	true
41                      	smoothSolver	6.3798498775073794e-06	1.9432609455796351e-07	2	6.5617756639195999e-06	2.5052614031202331e-07	2	false	smoothSolver	3.0649182906142980e-07	2.8165919028096129e-08	1	true	GAMG	1.0263261444929600e-04	9.9019697776229150e-06	19	true	smoothSolver	5.7920182413668019e-09	4.3441901424608018e-10	1	true
42                      	smoothSolver	6.4943232632930404e-06	1.9531991395018481e-07	2	6.8341521709050891e-06	2.5662024111200111e-07	2	false	smoothSolver	2.8944672415444859e-07	2.6956384480936169e-08	1	true	GAMG	1.0133833220741620e-04	9.3909475584613772e-06	18	true	smoothSolver	5.4949642448389719e-09	4.1513006355027072e-10	1	true
43                      	smoothSolver	6.5219928837665997e-06	1.9624416404944860e-07	2	6.9960932381719511e-06	2.6370900850343962e-07	2	false	smoothSolver	2.7421890850531851e-07	2.5840151160245240e-08	1	true	GAMG	1.0018248751715150e-04	9.9007433610474796e-06	18	true	smoothSolver	5.2116875200735776e-09	3.9710744045461532e-10	1	true
44                      	smoothSolver	6.5604008328591806e-06	1.9694482767705461e-07	2	7.1583536764225771e-06	2.7114688834810542e-07	2	false	smoothSolver	2.6103127319840250e-07	2.4821497708422491e-08	1	true	GAMG	9.7201921343031443e-05	9.0005049774066887e-06	20	true	smoothSolver	4.9711329380158591e-09	3.8044000425597431e-10	1	true
45                      	smoothSolver	6.5945716163362643e-06	1.9867727732783510e-07	2	7.3205944120972812e-06	2.7842471637376412e-07	2	false	smoothSolver	2.4978760204677480e-07	2.3911263960459410e-08	1	true	GAMG	9.2135786629973736e-05	8.6178471337619634e-06	20	true	smoothSolver	4.7708564827598387e-09	3.6502853416792979e-10	1	true
46                      	smoothSolver	6.6182561049394847e-06	2.0079664896503029e-07	2	7.4762285609098361e-06	2.8525726350481620e-07	2	false	smoothSolver	2.4082549816506829e-07	2.3124584621454061e-08	1	true	GAMG	8.7389281443571220e-05	8.1766529157038628e-06	20	true	smoothSolver	4.5853668942144950e-09	3.5093195165134822e-10	1	true
47                      	smoothSolver	6.6505370311589630e-06	2.0311044454878639e-07	2	7.6383080167285954e-06	2.9229299389377020e-07	2	false	smoothSolver	2.3400867170003539e-07	2.2612220026399511e-08	1	true	GAMG	8.3550448891617533e-05	8.3424175906185200e-06	19	true	smoothSolver	4.4041864941323604e-09	3.3780129015504799e-10	1	true
48                      	smoothSolver	6.7432009647730418e-06	2.0549753337755991e-07	2	7.9061293553622780e-06	2.9987909582819298e-07	2	false	smoothSolver	2.2880289289942010e-07	2.2255360244799092e-08	1	true	GAMG	8.0381245243564241e-05	7.7657764238671372e-06	18	true	smoothSolver	4.2183051335196429e-09	3.2542224578131238e-10	1	true
49                      	smoothSolver	6.7929848835648188e-06	2.0846286942279791e-07	2	8.0440635596323341e-06	3.0740561988452719e-07	2	false	smoothSolver	2.2462030518030320e-07	2.2040578884162520e-08	1	true	GAMG	7.9462588126154378e-05	7.8334882616011868e-06	18	true	smoothSolver	4.0626830351231108e-09	3.1384440038452802e-10	1	true
50                      	smoothSolver	6.8375833162239619e-06	2.1175939797312790e-07	2	8.2049330059545928e-06	3.1525330941380419e-07	2	false	smoothSolver	2.2165572109897641e-07	2.1916913655648582e-08	1	true	GAMG	7.8710929627592540e-05	7.7154692500206338e-06	18	true	smoothSolver	3.8838239849419160e-09	3.0289760632033012e-10	1	true
51                      	smoothSolver	6.9018308704186326e-06	2.1463165204263090e-07	2	8.3932931595560035e-06	3.2366274722309782e-07	2	false	smoothSolver	2.2038659984711800e-07	2.1909858568256961e-08	1	true	GAMG	7.8538447895361952e-05	7.4282989390239644e-06	18	true	smoothSolver	3.7371400193543031e-09	2.9268734165525348e-10	1	true
52                      	smoothSolver	6.9721633060389462e-06	2.1738190678748040e-07	2	8.6001344351600059e-06	3.3264365374195148e-07	2	false	smoothSolver	2.1875628643580280e-07	3.8502926173189398e-09	2	true	GAMG	7.8754710499838581e-05	7.8250046306404252e-06	17	true	smoothSolver	3.6591341049077151e-09	2.8326601089153630e-10	1	true
53                      	smoothSolver	7.0685516317936571e-06	2.2026665218512091e-07	2	8.8922037551558739e-06	3.4182402622683952e-07	2	false	smoothSolver	2.1604273938086080e-07	2.1508400570975931e-08	1	true	GAMG	7.8815471265953978e-05	7.4405505072759876e-06	16	true	smoothSolver	3.4969737431064279e-09	2.7440232099595632e-10	1	true
54                      	smoothSolver	7.1097453235299928e-06	2.2314131457091500e-07	2	9.0801157520751776e-06	3.5132355550018273e-07	2	false	smoothSolver	2.1571793772557140e-07	2.1503637304062939e-08	1	true	GAMG	8.0000642021362052e-05	7.8314557539830997e-06	16	true	smoothSolver	3.3727114547673848e-09	2.6561989384476572e-10	1	true
55                      	smoothSolver	7.1774926645067713e-06	2.2538576166760300e-07	2	9.3051775364777182e-06	3.6127909193007119e-07	2	false	smoothSolver	2.1505657712060459e-07	2.1383966903739249e-08	1	true	GAMG	8.1115296470688167e-05	8.0498439028953966e-06	16	true	smoothSolver	3.2641401243812171e-09	2.5723362291610050e-10	1	true
56                      	smoothSolver	7.2362242834388566e-06	2.2823071241376891e-07	2	9.5417372633216521e-06	3.7101172488880739e-07	2	false	smoothSolver	2.1393499295346911e-07	2.1145794631029620e-08	1	true	GAMG	8.2129362674757209e-05	8.0763429117341289e-06	16	true	smoothSolver	3.1624615380260729e-09	2.4920445211720740e-10	1	true
57                      	smoothSolver	7.2889954556268892e-06	2.3121261086488719e-07	2	9.7787239985238070e-06	3.8039872857966672e-07	2	false	smoothSolver	2.1333638237197201e-07	2.0907050958911771e-08	1	true	GAMG	8.2923509614910484e-05	8.2897508526293919e-06	15	true	smoothSolver	3.0443675045088490e-09	2.4156006024915150e-10	1	true
58                      	smoothSolver	7.3925078241258864e-06	2.3398310405543769e-07	2	1.0150936691873619e-05	3.8983514208934060e-07	2	false	smoothSolver	2.1208232846729159e-07	2.0550924128128889e-08	1	true	GAMG	8.2309437740456405e-05	8.2190667626832034e-06	15	true	smoothSolver	2.9748240287014032e-09	2.3433635616676538e-10	1	true
59                      	smoothSolver	7.4282323939108793e-06	2.3767209049129260e-07	2	1.0360814273963921e-05	3.9965724366735669e-07	2	false	smoothSolver	2.1068426055623211e-07	2.0155110905888062e-08	1	true	GAMG	8.2279917561665160e-05	7.7508965775457573e-06	15	true	smoothSolver	2.8539648815490270e-09	2.2721056977944970e-10	1	true
60                      	smoothSolver	7.4940145671726928e-06	2.3940638452290971e-07	2	1.0656306758797560e-05	4.0954979686354258e-07	2	false	smoothSolver	2.0913146347362880e-07	1.9745415794418161e-08	1	true	GAMG	8.1052770157092867e-05	7.4743052495355836e-06	15	true	smoothSolver	2.7615751794590759e-09	2.2035315426849359e-10	1	true
61                      	smoothSolver	7.5303118872040030e-06	2.4312474812486339e-07	2	1.0900675736483850e-05	4.1964518122008681e-07	2	false	smoothSolver	2.0651666074120760e-07	1.9284518169133519e-08	1	true	GAMG	8.0033967152164898e-05	7.0731379531274912e-06	15	true	smoothSolver	2.6934376801096980e-09	2.1377486727647261e-10	1	true
62                      	smoothSolver	7.5988466729842090e-06	2.4410258447378192e-07	2	1.1216883135302020e-05	4.3050768299014177e-07	2	false	smoothSolver	2.0307608669480451e-07	1.8751889449730839e-08	1	true	GAMG	7.8447875828785909e-05	7.6967788503088188e-06	14	true	smoothSolver	2.6020813317455439e-09	2.0737115344166139e-10	1	true
63                      	smoothSolver	7.6250306007598316e-06	2.4781137540577638e-07	2	1.1451769591675920e-05	4.4073759426029499e-07	2	false	smoothSolver	1.9902357700305951e-07	1.8201284371684579e-08	1	true	GAMG	7.7917036199686375e-05	6.8588410780609953e-06	15	true	smoothSolver	2.5206492744841860e-09	2.0119493762458250e-10	1	true
64                      	smoothSolver	7.6923397865193626e-06	2.5041472912485269e-07	2	1.1807396487548690e-05	4.5206451396618301e-07	2	false	smoothSolver	1.9401906403214131e-07	1.7644612384120801e-08	1	true	GAMG	7.4887212437905391e-05	7.4029989576004282e-06	13	true	smoothSolver	2.4483562826349478e-09	1.9537946995685890e-10	1	true
65                      	smoothSolver	7.7441928664142919e-06	2.5067526243767361e-07	2	1.2105357838993649e-05	4.6380243473142698e-07	2	false	smoothSolver	1.8802951990357009e-07	1.7120058022019080e-08	1	true	GAMG	7.3417610467296741e-05	6.5127929134066780e-06	15	true	smoothSolver	2.3917604835446998e-09	1.8972976219393961e-10	1	true
66                      	smoothSolver	7.7778192276513114e-06	2.5519084139104968e-07	2	1.2414357550417000e-05	4.7535473386940642e-07	2	false	smoothSolver	1.8089808173038721e-07	1.6595088073089589e-08	1	true	GAMG	7.0118178433408709e-05	6.8899840923566072e-06	13	true	smoothSolver	2.3164088097035638e-09	1.8442668780437060e-10	1	true
67                      	smoothSolver	7.8324626663252707e-06	2.5561003396065210e-07	2	1.2727538028620580e-05	4.8747502434346701e-07	2	false	smoothSolver	1.7292362380380989e-07	1.6051911517798270e-08	1	true	GAMG	6.8286519012376008e-05	6.0740298603811582e-06	15	true	smoothSolver	2.2815693602114072e-09	1.7926674876208721e-10	1	true
68                      	smoothSolver	7.8650806829066703e-06	2.6000846290689508e-07	2	1.3056380674564880e-05	4.9971339653542377e-07	2	false	smoothSolver	1.6441308570658331e-07	1.5531388867157801e-08	1	true	GAMG	6.4775780826290075e-05	5.4515616555421146e-06	15	true	smoothSolver	2.2288879141864212e-09	1.7434147770514359e-10	1	true
69                      	smoothSolver	7.9192860099992178e-06	2.6054000294305301e-07	2	1.3366645570551200e-05	5.1263490211076401e-07	2	false	smoothSolver	1.5729300228724500e-07	1.5093562498424691e-08	1	true	GAMG	6.1941053750994726e-05	6.1856040331198842e-06	14	true	smoothSolver	2.1495333057400101e-09	1.6960471261753439e-10	1	true
70                      	smoothSolver	7.9385389880891721e-06	2.6389675652932551e-07	2	1.3660177697041810e-05	5.2542212606255972e-07	2	false	smoothSolver	1.5374692092008481e-07	1.4799985704293591e-08	1	true	GAMG	6.0095964559288500e-05	5.5333625361921832e-06	15	true	smoothSolver	2.0774993041583570e-09	1.6512895591405981e-10	1	true
71                      	smoothSolver	7.9842509220042898e-06	2.6609069345182997e-07	2	1.4047138380852210e-05	5.3814973530220354e-07	2	false	smoothSolver	1.5101037495734661e-07	1.4599095348852170e-08	1	true	GAMG	5.6212000024414142e-05	5.0485325941438316e-06	15	true	smoothSolver	2.0472493773330680e-09	1.6100404440568871e-10	1	true
72                      	smoothSolver	8.0276796801243802e-06	2.6634458925378268e-07	2	1.4353905105974899e-05	5.5296205499765873e-07	2	false	smoothSolver	1.4887214543806599e-07	1.4460351852360420e-08	1	true	GAMG	5.3180939310277213e-05	5.0399232947125824e-06	15	true	smoothSolver	1.9703628391510431e-09	1.5698766980455519e-10	1	true
73                      	smoothSolver	8.0398264200890327e-06	2.6959344604557172e-07	2	1.4705604465969239e-05	5.6662355879128030e-07	2	false	smoothSolver	1.4692063652426649e-07	1.4377402090112729e-08	1	true	GAMG	5.0009492411913248e-05	4.7786673619695988e-06	15	true	smoothSolver	1.9226253182963970e-09	1.5324539146214110e-10	1	true
74                      	smoothSolver	8.0868156798781589e-06	2.6974715617484073e-07	2	1.5028887519578410e-05	5.8079124555534161e-07	2	false	smoothSolver	1.4511449726617350e-07	1.4329688697243050e-08	1	true	GAMG	4.7170829949809647e-05	4.6812010664233340e-06	16	true	smoothSolver	1.9101593042234272e-09	1.4973142308141940e-10	1	true
75                      	smoothSolver	8.1087270018673753e-06	2.7271757215459807e-07	2	1.5359504524152321e-05	5.9443587703140406e-07	2	false	smoothSolver	1.4311877484345140e-07	1.4295774493447790e-08	1	true	GAMG	4.4744629579547909e-05	4.0770598528205131e-06	17	true	smoothSolver	1.8524143442295020e-09	1.4634190308462311e-10	1	true
76                      	smoothSolver	8.1304414693438679e-06	2.7368058086383463e-07	2	1.5727033186130941e-05	6.0802129184551134e-07	2	false	smoothSolver	1.4087334155889959e-07	2.6392009129652219e-09	2	true	GAMG	4.1172717614072947e-05	3.7089533620857820e-06	17	true	smoothSolver	1.8001967276425001e-09	1.4318926029168571e-10	1	true
77                      	smoothSolver	8.1587718117907587e-06	2.7290557812908531e-07	2	1.6047663538816182e-05	6.2389566747981486e-07	2	false	smoothSolver	1.3798856486370770e-07	2.6152500496187360e-09	2	true	GAMG	3.8545984205931507e-05	3.7811721815095222e-06	17	true	smoothSolver	1.7695303107507600e-09	1.4050959087531611e-10	1	true
78                      	smoothSolver	8.1649486208462750e-06	2.7507638838889090e-07	2	1.6406630524712189e-05	6.3717346814531201e-07	2	false	smoothSolver	1.3493268453213490e-07	2.5966107634269351e-09	2	true	GAMG	3.6099144088533661e-05	3.2068952276851560e-06	19	true	smoothSolver	1.7183651056819429e-09	1.3775237747210109e-10	1	true
79                      	smoothSolver	8.1922270453707335e-06	2.7422836155299883e-07	2	1.6738732719752190e-05	6.5179727252678102e-07	2	false	smoothSolver	1.3165095484016320e-07	2.5781998592748499e-09	2	true	GAMG	3.3607091563504512e-05	3.1287274569692542e-06	19	true	smoothSolver	1.6801507796747329e-09	1.3512909558277961e-10	1	true
80                      	smoothSolver	8.1917311410162504e-06	2.7548217078301929e-07	2	1.7086828001836839e-05	6.6474234011683837e-07	2	false	smoothSolver	1.2831618636778690e-07	2.5610870793507341e-09	2	true	GAMG	3.1438613522698343e-05	2.9587146581391668e-06	19	true	smoothSolver	1.6424502147342890e-09	1.3256496282363869e-10	1	true
81                      	smoothSolver	8.2025366523571932e-06	2.7414006382633470e-07	2	1.7407994442811159e-05	6.7918289740511659e-07	2	false	smoothSolver	1.2486932937025380e-07	2.5425263454302328e-09	2	true	GAMG	2.9579470647156870e-05	2.8032364820567941e-06	20	true	smoothSolver	1.6108859382282669e-09	1.3010233842370780e-10	1	true
82                      	smoothSolver	8.2025978919535051e-06	2.7463226619307161e-07	2	1.7742142103106199e-05	6.9135524657631500e-07	2	false	smoothSolver	1.2132437008255411e-07	2.5233954995676401e-09	2	true	GAMG	2.8028066876190072e-05	2.7915652101978469e-06	20	true	smoothSolver	1.5773248365297969e-09	1.2779987746268861e-10	1	true
83                      	smoothSolver	8.1969386462317881e-06	2.7372730515564053e-07	2	1.8064085526020872e-05	7.0387308280952699e-07	2	false	smoothSolver	1.1775137633340010e-07	2.5052312472333501e-09	2	true	GAMG	2.6519604828737700e-05	2.4877565645426700e-06	21	true	smoothSolver	1.5468270906542860e-09	1.2560327906833659e-10	1	true
84                      	smoothSolver	8.1819417652878126e-06	2.7264965954677891e-07	2	1.8400964454369551e-05	7.1634147471583487e-07	2	false	smoothSolver	1.1478795858235999e-07	2.4916626397195509e-09	2	true	GAMG	2.4706879295126070e-05	2.4516338489337021e-06	20	true	smoothSolver	1.5342951503430300e-09	1.2352985969697650e-10	1	true
85                      	smoothSolver	8.1646376355417250e-06	2.7095249740146882e-07	2	1.8703153629188950e-05	7.2896893455307990e-07	2	false	smoothSolver	1.1272476688094830e-07	2.4779220420377380e-09	2	true	GAMG	2.3498489575194469e-05	2.2032845784638241e-06	21	true	smoothSolver	1.5048323270124880e-09	1.2141398033001639e-10	1	true
86                      	smoothSolver	8.1491736078904022e-06	2.6943891976252818e-07	2	1.9006883923603719e-05	7.4021853489862236e-07	2	false	smoothSolver	1.1081580981102480e-07	2.4599492687571518e-09	2	true	GAMG	2.2078480535412620e-05	2.1954698141316759e-06	20	true	smoothSolver	1.4531814390600719e-09	1.1927459787555189e-10	1	true
87                      	smoothSolver	8.1216872267017818e-06	2.6819230252061473e-07	2	1.9302614198965521e-05	7.4984102241786269e-07	2	false	smoothSolver	1.0878681669679220e-07	2.4392170885930661e-09	2	true	GAMG	2.1232245108983660e-05	2.1121127667428369e-06	21	true	smoothSolver	1.4218032114857010e-09	1.1723962731708159e-10	1	true
88                      	smoothSolver	8.0869396906398930e-06	2.6642243429969822e-07	2	1.9604864052413410e-05	7.5947096634826926e-07	2	false	smoothSolver	1.0676266934461830e-07	2.4206824315588970e-09	2	true	GAMG	2.0062049832436478e-05	1.9762716755785001e-06	21	true	smoothSolver	1.3896111219464169e-09	1.1524888534450041e-10	1	true
89                      	smoothSolver	8.0516113186069447e-06	2.6378872118703321e-07	2	1.9871075741152049e-05	7.6971387820893546e-07	2	false	smoothSolver	1.0489587902562159e-07	2.4054874057868308e-09	2	true	GAMG	1.9283267676296850e-05	1.8759419610368650e-06	22	true	smoothSolver	1.3573873575476589e-09	1.1330021852947280e-10	1	true