# p  POINT_DATA 1140
# x  y  z  p
0.07146407279482662 0.06372485254585283 0 0.2847786547251531
0.07146407279482662 0.06372485254585283 1 0.2847786547251531
0.07348178487584102 0.06438274756732992 1 0.2850504848954959
0.07348178487584102 0.06438274756732992 0 0.2850504848954959
0.06947991484775383 0.06297176618692327 0 0.2845209266561912
0.06947991484775383 0.06297176618692327 1 0.2845209266561912
0.06753622482229722 0.06211972775170942 0 0.2842781792765482
0.06753622482229722 0.06211972775170942 1 0.2842781792765482
0.06564151619126178 0.06116379763620752 0 0.2840754788917157
0.06564151619126178 0.06116379763620752 1 0.2840754788917157
0.06380670583665601 0.06009752832015212 0 0.283923839658717
0.06380670583665601 0.06009752832015212 1 0.283923839658717
0.06204644515486769 0.05891239723161729 0 0.2838376968340066
0.06204644515486769 0.05891239723161729 1 0.2838376968340066
0.0603813244157628 0.05759719287363718 0 0.2838265061975023
0.0603813244157628 0.05759719287363718 1 0.2838265061975023
0.05884173024174739 0.05613744697182484 0 0.2838966109475171
0.05884173024174739 0.05613744697182484 1 0.2838966109475171
0.05747484205096139 0.05451553791988431 0 0.284045451675174
0.05747484205096139 0.05451553791988431 1 0.284045451675174
0.0563575564859076 0.05271384670222621 0 0.2842546550928776
0.0563575564859076 0.05271384670222621 1 0.2842546550928776
0.05561607348921617 0.05073012921808873 0 0.2844817772344219
0.05561607348921617 0.05073012921808873 1 0.2844817772344219
0.05543194516708912 0.04862419274756256 0 0.2846651795454014
0.05543194516708912 0.04862419274756256 1 0.2846651795454014
0.05595269465692156 0.04657787361626259 0 0.2847441436356948
0.05595269465692156 0.04657787361626259 1 0.2847441436356948
0.05711677774228519 0.04481295696233443 0 0.2846906703420243
0.05711677774228519 0.04481295696233443 1 0.2846906703420243
0.05870300680522235 0.04340926560978356 0 0.2845151264773466
0.05870300680522235 0.04340926560978356 1 0.2845151264773466
0.06052434015097087 0.04232370367095256 0 0.2842440089230841
0.06052434015097087 0.04232370367095256 1 0.2842440089230841
0.06246444569926593 0.04146419356104194 0 0.2838305298573816
0.06246444569926593 0.04146419356104194 1 0.2838305298573816
0.06440435464518315 0.0406041405691014 0 0.2834529738400036
0.06440435464518315 0.0406041405691014 1 0.2834529738400036
0.06629381558127466 0.03963729585707108 0 0.2833865434079991
0.06629381558127466 0.03963729585707108 1 0.2833865434079991
0.0681416062654315 0.03859358120339892 0 0.2834992211402128
0.0681416062654315 0.03859358120339892 1 0.2834992211402128
0.06993551408990768 0.03745957300652648 0 0.283648288728212
0.06993551408990768 0.03745957300652648 1 0.283648288728212
0.07167395574816454 0.03624223934340034 0 0.283784748083878
0.07167395574816454 0.03624223934340034 1 0.283784748083878
0.07335305817967802 0.03494428070670216 0 0.2838506780642328
0.07335305817967802 0.03494428070670216 1 0.2838506780642328
0.07496910339780978 0.03356860758292968 0 0.283874525721058
0.07496910339780978 0.03356860758292968 1 0.283874525721058
0.0765184998284103 0.03211827968022618 0 0.2838873203436517
0.0765184998284103 0.03211827968022618 1 0.2838873203436517
0.07799778223010732 0.03059650262142879 0 0.2839247801223667
0.07799778223010732 0.03059650262142879 1 0.2839247801223667
0.0794036611553644 0.02900666481764626 0 0.2840285743453203
0.0794036611553644 0.02900666481764626 1 0.2840285743453203
0.08073302938157532 0.02735231932237171 0 0.2842478536927251
0.08073302938157532 0.02735231932237171 1 0.2842478536927251
0.08198292731394433 0.02563714098234519 0 0.2846251035857277
0.08198292731394433 0.02563714098234519 1 0.2846251035857277
0.0831505507594637 0.0238649286231004 0 0.2851846190942471
0.0831505507594637 0.0238649286231004 1 0.2851846190942471
0.08423331443332426 0.02203963374848331 0 0.2859213549999364
0.08423331443332426 0.02203963374848331 1 0.2859213549999364
0.0852288285024744 0.02016532557677986 0 0.286803843252687
0.0852288285024744 0.02016532557677986 1 0.286803843252687
0.086134869207937 0.01824616490384489 0 0.2877745428807694
0.086134869207937 0.01824616490384489 1 0.2877745428807693
0.08694939540006788 0.01628641450361154 0 0.288763293420076
0.08694939540006788 0.01628641450361154 1 0.288763293420076
0.08767061919803699 0.01429043958063915 0 0.2896960359318002
0.08767061919803699 0.01429043958063915 1 0.2896960359318002
0.08829694938401166 0.01226268479438618 0 0.2905089611314779
0.08829694938401166 0.01226268479438618 1 0.2905089611314779
0.08882697542711024 0.01020765264874918 0 0.2911665302596757
0.08882697542711024 0.01020765264874918 1 0.2911665302596757
0.08925949991661435 0.008129913358253381 0 0.291632600983588
0.08925949991661435 0.008129913358253381 1 0.291632600983588
0.08959358917388269 0.006034092891221932 0 0.291925944586347
0.08959358917388269 0.006034092891221932 1 0.291925944586347
0.08982850724504027 0.003924852967920573 0 0.2921310295168097
0.08982850724504027 0.003924852967920573 1 0.2921310295168097
0.08996370715406672 0.001806881682381981 0 0.2924973089482712
0.08996370715406672 0.001806881682381981 1 0.2924973089482712
0.08999888139809376 -0.00031510884623629 0 0.2927881306255966
0.08999888139809376 -0.00031510884623629 1 0.2927881306255966
0.08993398021011784 -0.002436397665607007 0 0.2924112881452982
0.08993398021011784 -0.002436397665607007 1 0.2924112881452982
0.08976914804419034 -0.004552269140408941 0 0.2916034254048728
0.08976914804419034 -0.004552269140408941 1 0.2916034254048728
0.08950472336035058 -0.00665801362905008 0 0.290838737620257
0.08950472336035058 -0.00665801362905008 1 0.290838737620257
0.08914130036271097 -0.008748947396320969 0 0.2901990471415207
0.08914130036271097 -0.008748947396320969 1 0.2901990471415207
0.08867971198896077 -0.01082042384144119 0 0.2897059922881411
0.08867971198896077 -0.01082042384144119 1 0.289705992288141
0.08812097789654746 -0.01286783611881395 0 0.289397869464015
0.08812097789654746 -0.01286783611881395 1 0.289397869464015
0.08746631333402927 -0.01488662188448975 0 0.2892609724954177
0.08746631333402927 -0.01488662188448975 1 0.2892609724954177
0.08671719168823147 -0.01687229461149217 0 0.2892230241132425
0.08671719168823147 -0.01687229461149217 1 0.2892230241132425
0.08587529675095176 -0.01882044560822609 0 0.2891688015962623
0.08587529675095176 -0.01882044560822609 1 0.2891688015962623
0.08494248821518582 -0.02072673719131401 0 0.2889635841868701
0.08494248821518582 -0.02072673719131401 1 0.2889635841868702
0.08392081868401015 -0.02258691845702313 0 0.2885397024414858
0.08392081868401015 -0.02258691845702313 1 0.2885397024414858
0.08281258439097421 -0.02439686201615311 0 0.2880136988316757
0.08281258439097421 -0.02439686201615311 1 0.2880136988316757
0.08162025984504226 -0.0261525504558963 0 0.2875876983554634
0.08162025984504226 -0.0261525504558963 1 0.2875876983554634
0.08034647979840699 -0.02785006793922841 0 0.2872654942698701
0.08034647979840699 -0.02785006793922841 1 0.2872654942698701
0.07899406575324036 -0.02948562813641942 0 0.2868682779609596
0.07899406575324036 -0.02948562813641942 1 0.2868682779609596
0.07756604863869114 -0.03105561099175637 0 0.2862729977221298
0.07756604863869114 -0.03105561099175637 1 0.2862729977221298
0.07606560758894329 -0.03255652954640176 0 0.2855061014305083
0.07606560758894329 -0.03255652954640176 1 0.2855061014305083
0.07449606127567369 -0.03398502762393985 0 0.2841109448879545
0.07449606127567369 -0.03398502762393985 1 0.2841109448879545
0.07286089996315463 -0.03533792347504261 0 0.2806397354444795
0.07286089996315463 -0.03533792347504261 1 0.2806397354444795
0.07116377817919517 -0.03661222969616333 0 0.2710927539302141
0.07116377817919517 -0.03661222969616333 1 0.2710927539302141
0.06940846849490777 -0.03780511186355205 0 0.2509601688915593
0.06940846849490777 -0.03780511186355205 1 0.2509601688915593
0.06759885885422882 -0.0389138929664895 0 0.2232160227570462
0.06759885885422882 -0.0389138929664895 1 0.2232160227570462
0.06573898104459719 -0.03993611299038197 0 0.1958466318455609
0.06573898104459719 -0.03993611299038197 1 0.1958466318455609
0.06383298238694621 -0.04086951967908703 0 0.1734482469472199
0.06383298238694621 -0.04086951967908703 1 0.1734482469472199
0.06188509711865456 -0.04171203017468929 0 0.1570423846322591
0.06188509711865456 -0.04171203017468929 1 0.1570423846322591
0.05989964743232613 -0.04246174423696938 0 0.1463840802178813
0.05989964743232613 -0.04246174423696938 1 0.1463840802178813
0.05788105807479971 -0.04311701224980764 0 0.1410215376151959
0.05788105807479971 -0.04311701224980764 1 0.1410215376151959
0.0558338229921187 -0.04367639404821192 0 0.1405442525725483
0.0558338229921187 -0.04367639404821192 1 0.1405442525725483
0.0537624911249986 -0.04413863094599227 0 0.1445637318573927
0.0537624911249986 -0.04413863094599227 1 0.1445637318573927
0.05167166416514422 -0.04450267241128921 0 0.1527070677634583
0.05167166416514422 -0.04450267241128921 1 0.1527070677634583
0.04956600010304497 -0.04476773469865752 0 0.1645794831090685
0.04956600010304497 -0.04476773469865752 1 0.1645794831090685
0.04745018170177457 -0.04493323934481321 0 0.1797543601941056
0.04745018170177457 -0.04493323934481321 1 0.1797543601941056
0.04532891206703462 -0.04499879665602114 0 0.1979170389486141
0.04532891206703462 -0.04499879665602114 1 0.1979170389486141
0.04320691153169842 -0.04496424755616887 0 0.2188277411858413
0.04320691153169842 -0.04496424755616887 1 0.2188277411858413
0.04108889945805829 -0.04482969796728467 0 0.2420866890708027
0.04108889945805829 -0.04482969796728467 1 0.2420866890708027
0.03897958464900957 -0.04459545096023537 0 0.2671340746687964
0.03897958464900957 -0.04459545096023537 1 0.2671340746687964
0.03688366175917863 -0.04426200102463859 0 0.2934081845529205
0.03688366175917863 -0.04426200102463859 1 0.2934081845529205
0.03480579456046351 -0.04383008923927619 0 0.3203704302760723
0.03480579456046351 -0.04383008923927619 1 0.3203704302760723
0.03275059896137497 -0.04330070288149297 0 0.3474707615165923
0.03275059896137497 -0.04330070288149297 1 0.3474707615165923
0.03072264516066991 -0.04267501609144776 0 0.3741416521756205
0.03072264516066991 -0.04267501609144776 1 0.3741416521756205
0.02872645282557088 -0.04195439296317724 0 0.3997949291663877
0.02872645282557088 -0.04195439296317724 1 0.3997949291663877
0.02676645973312072 -0.04114044781043784 0 0.423825694339966
0.02676645973312072 -0.04114044781043784 1 0.4238256943399659
0.02484701597497448 -0.04023501154797528 0 0.4456252365988952
0.02484701597497448 -0.04023501154797528 1 0.4456252365988952
0.02297239375637241 -0.03924008852774167 0 0.4645873364078796
0.02297239375637241 -0.03924008852774167 1 0.4645873364078796
0.02114677607202451 -0.0381578676531702 0 0.4801119900687409
0.02114677607202451 -0.0381578676531702 1 0.4801119900687409
0.01937421603746375 -0.03699077719537148 0 0.4916117039911311
0.01937421603746375 -0.03699077719537148 1 0.4916117039911311
0.01765864028477777 -0.03574142173784726 0 0.498506835365232
0.01765864028477777 -0.03574142173784726 1 0.498506835365232
0.01600387925443261 -0.03441256979608241 0 0.5002603335936041
0.01600387925443261 -0.03441256979608241 1 0.5002603335936041
0.01441362614459595 -0.03300716032399199 0 0.4963871609548332
0.01441362614459595 -0.03300716032399199 1 0.4963871609548332
0.01289140025251793 -0.03152834067393862 0 0.4864029975033181
0.01289140025251793 -0.03152834067393862 1 0.4864029975033181
0.01144057984574059 -0.02997940574184144 0 0.4698732047328729
0.01144057984574059 -0.02997940574184144 1 0.4698732047328729
0.01006440787936498 -0.02836378407827757 0 0.4464300118681219
0.01006440787936498 -0.02836378407827757 1 0.4464300118681219
0.008765954982568212 -0.02668506437136304 0 0.4157471589587457
0.008765954982568212 -0.02668506437136304 1 0.4157471589587457
0.007548086150267252 -0.02494699799855245 0 0.3775631457481544
0.007548086150267252 -0.02494699799855245 1 0.3775631457481544
0.006413507468235477 -0.02315345104731803 0 0.3316828172750754
0.006413507468235477 -0.02315345104731803 1 0.3316828172750754
0.005364765407059734 -0.02130839752258448 0 0.2779865278646281
0.005364765407059734 -0.02130839752258448 1 0.2779865278646281
0.004404192104329557 -0.01941594440268608 0 0.216430394168507
0.004404192104329557 -0.01941594440268608 1 0.216430394168507
0.003533900354574854 -0.01748031243498698 0 0.1470367697849924
0.003533900354574854 -0.01748031243498698 1 0.1470367697849924
0.002755829267213992 -0.01550580331717607 0 0.06990970794471912
0.002755829267213992 -0.01550580331717607 1 0.06990970794471911
0.002071736768582362 -0.01349679891228072 0 -0.01470935299803222
0.002071736768582362 -0.01349679891228072 1 -0.01470935299803222
0.001483131521754614 -0.01145777376501697 0 -0.1064291479079154
0.001483131521754614 -0.01145777376501697 1 -0.1064291479079154
0.0009913021377216411 -0.009393268267140471 0 -0.2048437777638657
0.0009913021377216411 -0.009393268267140471 1 -0.2048437777638657
0.0005973534115691686 -0.007307870549212395 0 -0.3096582089214063
0.0005973534115691686 -0.007307870549212395 1 -0.3096582089214063
0.0003021876287288942 -0.005206213969265315 0 -0.4204873411635398
0.0003021876287288942 -0.005206213969265315 1 -0.4204873411635398
0.0001064382805403098 -0.003092979172689267 0 -0.5366485986326487
0.0001064382805403098 -0.003092979172689267 1 -0.5366485986326487
1.052597953041825e-05 -0.0009728659377106612 0 -0.657296996779037
1.052597953041825e-05 -0.0009728659377106612 1 -0.657296996779037
1.468229478084188e-05 0.001149412130929496 0 -0.7815504390520704
1.468229478084188e-05 0.001149412130929496 1 -0.7815504390520704
0.0001189169651671751 0.003269132865503309 0 -0.9084735640925274
0.0001189169651671751 0.003269132865503309 1 -0.9084735640925273
0.0003229696783196427 0.005381582048867738 0 -1.037101009512938
0.0003229696783196427 0.005381582048867738 1 -1.037101009512938
0.0006263790699420616 0.007482063594677252 0 -1.166397681308627
0.0006263790699420616 0.007482063594677252 1 -1.166397681308627
0.001028494369667941 0.009565902609993477 0 -1.295165975256203
0.001028494369667941 0.009565902609993477 1 -1.295165975256203
0.001528428403554193 0.01162846073254587 0 -1.422095585211418
0.001528428403554193 0.01162846073254587 1 -1.422095585211418
0.002125041351970114 0.01366515705685875 0 -1.545852278609707
0.002125041351970114 0.01366515705685875 1 -1.545852278609707
0.002817005955384981 0.01567146342326204 0 -1.664997931224903
0.002817005955384981 0.01567146342326204 1 -1.664997931224903
0.003602809710915968 0.01764290807150909 0 -1.777879302842772
0.003602809710915968 0.01764290807150909 1 -1.777879302842772
0.004480699571727095 0.01957510614698765 0 -1.882692859848624
0.004480699571727095 0.01957510614698765 1 -1.882692859848624
0.005448699964658826 0.02146377081566385 0 -1.977493206653033
0.005448699964658826 0.02146377081566385 1 -1.977493206653033
0.006504664231148132 0.02330470025967932 0 -2.059964535476423
0.006504664231148132 0.02330470025967932 1 -2.059964535476423
0.007646267994301661 0.02509378425313459 0 -2.127122992940498
0.007646267994301661 0.02509378425313459 1 -2.127122992940498
0.008870957396802282 0.0268270514867057 0 -2.175039905080901
0.008870957396802282 0.0268270514867057 1 -2.175039905080901
0.0101759891614797 0.02850066168444349 0 -2.196189761396348
0.0101759891614797 0.02850066168444349 1 -2.196189761396348
0.01155848285351726 0.03011087728614862 0 -2.175872585093574
0.01155848285351726 0.03011087728614862 1 -2.175872585093574
0.01305397806222087 0.03172503461209827 0 -2.130829451653688
0.01305397806222087 0.03172503461209827 1 -2.130829451653688
0.01459375598126544 0.03329701281388199 0 -2.104758500860862
0.01459375598126544 0.03329701281388199 1 -2.104758500860862
0.01617515080572486 0.03482712490246395 0 -2.099343010850211
0.01617515080572486 0.03482712490246395 1 -2.099343010850211
0.01779560068713158 0.03631582041603447 0 -2.095310098384402
0.01779560068713158 0.03631582041603447 1 -2.095310098384402
0.01945264557865655 0.03776367850346549 0 -2.089518437990155
0.01945264557865655 0.03776367850346549 1 -2.089518437990155
0.02114395901696338 0.03917136019054666 0 -2.082561379331057
0.02114395901696338 0.03917136019054666 1 -2.082561379331057
0.0228673369469839 0.04053960508683319 0 -2.074657106069389
0.0228673369469839 0.04053960508683319 1 -2.074657106069389
0.02462069552559515 0.04186921947093675 0 -2.065574770611556
0.02462069552559515 0.04186921947093675 1 -2.065574770611556
0.02640207023443881 0.0431610627362803 0 -2.055195100353882
0.02640207023443881 0.0431610627362803 1 -2.055195100353882
0.02820962531157012 0.04441601811391003 0 -2.043567711265035
0.02820962531157012 0.04441601811391003 1 -2.043567711265035
0.03004164175827331 0.04563499170337253 0 -2.030793117655311
0.03004164175827331 0.04563499170337253 1 -2.030793117655311
0.03189651250790394 0.04681890334690637 0 -2.01698318964556
0.03189651250790394 0.04681890334690637 1 -2.01698318964556
0.03377273738676157 0.04796867843472596 0 -2.002250407185011
0.03377273738676157 0.04796867843472596 1 -2.002250407185011
0.03566891577030498 0.04908524435086514 0 -1.986713968491339
0.03566891577030498 0.04908524435086514 1 -1.986713968491339
0.03758374460898922 0.05016951883122246 0 -1.970487529690925
0.03758374460898922 0.05016951883122246 1 -1.970487529690925
0.03951601235897724 0.05122240539047566 0 -1.953672413705862
0.03951601235897724 0.05122240539047566 1 -1.953672413705862
0.04146459169799638 0.05224479222589068 0 -1.936366408166387
0.04146459169799638 0.05224479222589068 1 -1.936366408166387
0.043428434007061 0.05323754928428264 0 -1.918656305519548
0.043428434007061 0.05323754928428264 1 -1.918656305519548
0.04540656403439659 0.05420152600626471 0 -1.900620764193177
0.04540656403439659 0.05420152600626471 1 -1.900620764193177
0.04739807478496724 0.05513754964652161 0 -1.882335547176596
0.04739807478496724 0.05513754964652161 1 -1.882335547176596
0.04940212266363719 0.05604642407986552 0 -1.863865497372607
0.04940212266363719 0.05604642407986552 1 -1.863865497372607
0.05141792288819168 0.05692892901367536 0 -1.845265564965731
0.05141792288819168 0.05692892901367536 1 -1.845265564965731
0.05344474517960782 0.05778581953761588 0 -1.826587289657399
0.05344474517960782 0.05778581953761588 1 -1.826587289657399
0.05548190972980455 0.05861782595074873 0 -1.807877654673503
0.05548190972980455 0.05861782595074873 1 -1.807877654673503
0.05752878344215135 0.05942565381466511 0 -1.789174901333172
0.05752878344215135 0.05942565381466511 1 -1.789174901333172
0.05958477643627903 0.06020998418877099 0 -1.770510874115194
0.05958477643627903 0.06020998418877099 1 -1.770510874115194
0.06164933880623824 0.06097147401051623 0 -1.751916689256426
0.06164933880623824 0.06097147401051623 1 -1.751916689256426
0.06372195761932921 0.06171075658914514 0 -1.733420009686591
0.06372195761932921 0.06171075658914514 1 -1.733420009686591
0.06580215414205091 0.06242844218662739 0 -1.715041551238216
0.06580215414205091 0.06242844218662739 1 -1.715041551238216
0.06788948127910446 0.06312511866375531 0 -1.69679885433347
0.06788948127910446 0.06312511866375531 1 -1.69679885433347
0.06998352121137381 0.06380135217314516 0 -1.678712446746729
0.06998352121137381 0.06380135217314516 1 -1.678712446746729
0.0720838832190237 0.064457687884063 0 -1.660801283302062
0.0720838832190237 0.064457687884063 1 -1.660801283302062
0.07419020167627671 0.06509465072670306 0 -1.643086575613038
0.07419020167627671 0.06509465072670306 1 -1.643086575613038
0.07630213420503776 0.0657127461458509 0 -1.625561414206342
0.07630213420503776 0.0657127461458509 1 -1.625561414206342
0.07841935997515345 0.06631246085578499 0 -1.608316527153172
0.07841935997515345 0.06631246085578499 1 -1.608316527153172
0.08054157813982969 0.06689426358990257 0 -1.591053988686721
0.08054157813982969 0.06689426358990257 1 -1.591053988686721
0.08266849731690093 0.06745860090169672 0 -1.57363206202495
0.08266849731690093 0.06745860090169672 1 -1.57363206202495
0.0848970697841275 0.06803044402524559 0 -1.556278406488546
0.0848970697841275 0.06803044402524559 1 -1.556278406488546
0.08723151842796376 0.06860881670937967 0 -1.538404915878926
0.08723151842796376 0.06860881670937967 1 -1.538404915878926
0.08967617043446909 0.06919263808321705 0 -1.519720091726212
0.08967617043446909 0.06919263808321705 1 -1.519720091726212
0.09223545239680732 0.06978071906545177 0 -1.500504826730634
0.09223545239680732 0.06978071906545177 1 -1.500504826730634
0.09491388460971419 0.0703717588670183 0 -1.480783743567286
0.09491388460971419 0.0703717588670183 1 -1.480783743567286
0.09771607449475088 0.07096434160576838 0 -1.460551870322359
0.09771607449475088 0.07096434160576838 1 -1.460551870322359
0.1006467090983005 0.07155693305433218 0 -1.439808291301442
0.1006467090983005 0.07155693305433218 1 -1.439808291301442
0.1037105460968526 0.07214788019359235 0 -1.418562898641916
0.1037105460968526 0.07214788019359235 1 -1.418562898641916
0.1069124037906 0.07273541161754501 0 -1.396828300622357
0.1069124037906 0.07273541161754501 1 -1.396828300622357
0.1102571520025145 0.07331762726838532 0 -1.374619854902288
0.1102571520025145 0.07331762726838532 1 -1.374619854902288
0.1137496997024908 0.07389249886701299 0 -1.351948522310487
0.1137496997024908 0.07389249886701299 1 -1.351948522310487
0.1173949817022556 0.07445786959216399 0 -1.328824850675714
0.1173949817022556 0.07445786959216399 1 -1.328824850675714
0.1211979411090447 0.07501147582258645 0 -1.305272007430668
0.1211979411090447 0.07501147582258645 1 -1.305272007430668
0.1251635192014468 0.07555091263083522 0 -1.281309680700439
0.1251635192014468 0.07555091263083522 1 -1.281309680700439
0.1292966365824791 0.07607364399604692 0 -1.256948610958568
0.1292966365824791 0.07607364399604692 1 -1.256948610958568
0.1336021703266206 0.07657704235366199 0 -1.232213169757141
0.1336021703266206 0.07657704235366199 1 -1.232213169757141
0.1380849427407521 0.07705832307668098 0 -1.207121379491159
0.1380849427407521 0.07705832307668098 1 -1.207121379491159
0.1427496912525072 0.07751462563259039 0 -1.181691924029061
0.1427496912525072 0.07751462563259039 1 -1.181691924029061
0.147601054302275 0.07794294087597811 0 -1.155943363872111
0.147601054302275 0.07794294087597811 1 -1.155943363872111
0.1526435399921315 0.0783401936486731 0 -1.129895169570013
0.1526435399921315 0.0783401936486731 1 -1.129895169570013
0.1578815075433312 0.07870317555446553 0 -1.103565683839035
0.1578815075433312 0.07870317555446553 1 -1.103565683839035
0.1633191360635366 0.07902860945670721 0 -1.076965173934455
0.1633191360635366 0.07902860945670721 1 -1.076965173934455
0.1689603987574839 0.07931313893877773 0 -1.050113612341141
0.1689603987574839 0.07931313893877773 1 -1.050113612341141
0.1748090350031447 0.07955331682740194 0 -1.023019024427404
0.1748090350031447 0.07955331682740194 1 -1.023019024427404
0.1808685187982761 0.07974564563285566 0 -0.9956851220110094
0.1808685187982761 0.07974564563285566 1 -0.9956851220110094
0.1871420285979035 0.07988658147634424 0 -0.9681105344424437
0.1871420285979035 0.07988658147634424 1 -0.9681105344424437
0.1936324189255014 0.07997230271915112 0 -0.9402846636025609
0.1936324189255014 0.07997230271915112 1 -0.9402846636025608
0.2003421728005562 0.080000302340028 0 -0.9124704833512246
0.2003421728005562 0.080000302340028 1 -0.9124704833512247
0.2072733300566519 0.07995717852140984 0 -0.8827911311780071
0.2072733300566519 0.07995717852140984 1 -0.8827911311780071
0.2144275792575181 0.07984850744583313 0 -0.8515673256920637
0.2144275792575181 0.07984850744583313 1 -0.8515673256920637
0.221806218397364 0.07967403248703826 0 -0.8205709707616859
0.221806218397364 0.07967403248703826 1 -0.8205709707616859
0.2294103336868454 0.07943992581551108 0 -0.7900657452979047
0.2294103336868454 0.07943992581551108 1 -0.7900657452979047
0.2372405954309377 0.07914946859091536 0 -0.7608592364732205
0.2372405954309377 0.07914946859091536 1 -0.7608592364732205
0.2452972227531543 0.07880525498069312 0 -0.7328315313844489
0.2452972227531543 0.07880525498069312 1 -0.7328315313844489
0.2535799207663838 0.07840952237476562 0 -0.7060252225649883
0.2535799207663838 0.07840952237476562 1 -0.7060252225649883
0.2620878571277923 0.07796415138187364 0 -0.6804242161814162
0.2620878571277923 0.07796415138187364 1 -0.6804242161814162
0.2708196024959124 0.07747067464629637 0 -0.6559705563951738
0.2708196024959124 0.07747067464629637 1 -0.6559705563951738
0.2797731049319405 0.07693045653475808 0 -0.6325941647519809
0.2797731049319405 0.07693045653475808 1 -0.6325941647519809
0.2889456699766274 0.0763448388512456 0 -0.6102348372686388
0.2889456699766274 0.0763448388512456 1 -0.6102348372686388
0.2983339315701719 0.07571504507849358 0 -0.5888362261647759
0.2983339315701719 0.07571504507849358 1 -0.5888362261647759
0.3079338242613433 0.07504218971585512 0 -0.568328175014803
0.3079338242613433 0.07504218971585512 1 -0.568328175014803
0.3177405705315016 0.0743273704214141 0 -0.5486485964267613
0.3177405705315016 0.0743273704214141 1 -0.5486485964267614
0.3277486765290328 0.0735717635103882 0 -0.5297476029951338
0.3277486765290328 0.0735717635103882 1 -0.5297476029951338
0.3379519228027505 0.07277656689010144 0 -0.5115831118121135
0.3379519228027505 0.07277656689010144 1 -0.5115831118121134
0.3483433527823868 0.07194293402932003 0 -0.4941108931605939
0.3483433527823868 0.07194293402932003 1 -0.4941108931605939
0.3589152808320336 0.07107206310241365 0 -0.4772886378987218
0.3589152808320336 0.07107206310241365 1 -0.4772886378987218
0.3696593065001355 0.07016525890121494 0 -0.461083215353548
0.3696593065001355 0.07016525890121494 1 -0.461083215353548
0.3805663314662488 0.06922393639120451 0 -0.4454693897186032
0.3805663314662488 0.06922393639120451 1 -0.4454693897186032
0.3916265647881039 0.06824947416327125 0 -0.4304170949297675
0.3916265647881039 0.06824947416327125 1 -0.4304170949297675
0.4028295554481338 0.06724331369277012 0 -0.4158972984960072
0.4028295554481338 0.06724331369277012 1 -0.4158972984960072
0.4141642279130298 0.06620700033490219 0 -0.4018849564395881
0.4141642279130298 0.06620700033490219 1 -0.4018849564395881
0.4256189268691327 0.06514223900598214 0 -0.3883603334083522
0.4256189268691327 0.06514223900598214 1 -0.3883603334083522
0.4371814396361492 0.06405068573045299 0 -0.3753031811817197
0.4371814396361492 0.06405068573045299 1 -0.3753031811817197
0.4488390517988454 0.06293404684721735 0 -0.3626870074625392
0.4488390517988454 0.06293404684721735 1 -0.3626870074625392
0.4605786027040786 0.06179410399377183 0 -0.3504941165668624
0.4605786027040786 0.06179410399377183 1 -0.3504941165668624
0.4723865552403775 0.06063282577664815 0 -0.3387106362051296
0.4723865552403775 0.06063282577664815 1 -0.3387106362051296
0.4842490324861781 0.05945211666011534 0 -0.327319071963263
0.4842490324861781 0.05945211666011534 1 -0.3273190719632631
0.4961518881576655 0.05825388797849082 0 -0.3163016422093021
0.4961518881576655 0.05825388797849082 1 -0.3163016422093021
0.508080776159603 0.05704007808072145 0 -0.3056397374468424
0.508080776159603 0.05704007808072145 1 -0.3056397374468424
0.5200212338985267 0.05581278352829381 0 -0.295318914547625
0.5200212338985267 0.05581278352829381 1 -0.295318914547625
0.5319587399330886 0.054574114904744 0 -0.2853347837275681
0.5319587399330886 0.054574114904744 1 -0.2853347837275681
0.5438787718870538 0.05332607860734109 0 -0.2756663632370771
0.5438787718870538 0.05332607860734109 1 -0.2756663632370771
0.5557668872493317 0.05207066434551687 0 -0.2663071457356853
0.5557668872493317 0.05207066434551687 1 -0.2663071457356853
0.5676087922807262 0.05080982751649503 0 -0.2572573030263164
0.5676087922807262 0.05080982751649503 1 -0.2572573030263164
0.5793904398321034 0.04954575222113709 0 -0.2484817087519396
0.5793904398321034 0.04954575222113709 1 -0.2484817087519397
0.591098059134943 0.04828050283172963 0 -0.2399688453166923
0.591098059134943 0.04828050283172963 1 -0.2399688453166923
0.6027182189038024 0.04701601649666409 0 -0.2317220540479731
0.6027182189038024 0.04701601649666409 1 -0.2317220540479731
0.6142378926694414 0.04575414912770981 0 -0.2237278571817395
0.6142378926694414 0.04575414912770981 1 -0.2237278571817395
0.6256445308526188 0.04449681780602693 0 -0.2159788157271743
0.6256445308526188 0.04449681780602693 1 -0.2159788157271743
0.6369260997456367 0.04324588000624297 0 -0.2084698773373634
0.6369260997456367 0.04324588000624297 1 -0.2084698773373634
0.6480711157047744 0.04200301811377542 0 -0.2011896689124026
0.6480711157047744 0.04200301811377542 1 -0.2011896689124026
0.6590687051519315 0.04076990616118568 0 -0.1941292457390911
0.6590687051519315 0.04076990616118568 1 -0.1941292457390911
0.6699086372669474 0.03954817851043137 0 -0.1872847878096324
0.6699086372669474 0.03954817851043137 1 -0.1872847878096324
0.6805813483704739 0.03833937198321283 0 -0.1806506170732665
0.6805813483704739 0.03833937198321283 1 -0.1806506170732665
0.6910779667713558 0.03714492974800371 0 -0.1742191713583838
0.6910779667713558 0.03714492974800371 1 -0.1742191713583838
0.7013903318396717 0.03596620173999177 0 -0.1679829150825292
0.7013903318396717 0.03596620173999177 1 -0.1679829150825292
0.7115110069988348 0.03480444388407709 0 -0.161936815241054
0.7115110069988348 0.03480444388407709 1 -0.161936815241054
0.7214332873632311 0.03366081705718441 0 -0.1560773025460762
0.7214332873632311 0.03366081705718441 1 -0.1560773025460762
0.7311512016550163 0.03253638630854289 0 -0.1503994175347803
0.7311512016550163 0.03253638630854289 1 -0.1503994175347803
0.7406595094911822 0.03143212044743972 0 -0.1448978016173697
0.7406595094911822 0.03143212044743972 1 -0.1448978016173697
0.7499536936549664 0.03034889216505387 0 -0.1395675002590137
0.7499536936549664 0.03034889216505387 1 -0.1395675002590137
0.7590299479420151 0.02928747868967731 0 -0.1344034679386595
0.7590299479420151 0.02928747868967731 1 -0.1344034679386595
0.7678851612169835 0.02824856293969643 0 -0.1294009620948036