# wallShearStress  POINT_DATA 1140
# x  y  z  wallShearStress_x  wallShearStress_y  wallShearStress_z
0.07146407279482662 0.06372485254585283 0 7.227549162220281e-05 2.561189068154711e-05 -2.947263937320899e-26
0.07146407279482662 0.06372485254585283 1 7.227549162220281e-05 2.561189068154711e-05 -2.947263937320899e-26
0.07348178487584102 0.06438274756732992 1 6.523102120172264e-05 2.044019343019812e-05 -2.844528302877208e-26
0.07348178487584102 0.06438274756732992 0 6.523102120172264e-05 2.044019343019812e-05 -2.844528302877208e-26
0.06947991484775383 0.06297176618692327 0 7.658932700225605e-05 3.137903889782464e-05 -1.931174183602064e-21
0.06947991484775383 0.06297176618692327 1 7.658932700225605e-05 3.137903889782464e-05 -1.931174183602064e-21
0.06753622482229722 0.06211972775170942 0 7.849907166961447e-05 3.702468349121129e-05 -1.931174154525299e-21
0.06753622482229722 0.06211972775170942 1 7.849907166961447e-05 3.702468349121128e-05 -1.9311741545253e-21
0.06564151619126178 0.06116379763620752 0 7.744390906338101e-05 4.20085568124092e-05 1.292489158102212e-29
0.06564151619126178 0.06116379763620752 1 7.744390906338101e-05 4.20085568124092e-05 1.292489158104508e-29
0.06380670583665601 0.06009752832015212 0 7.343598481830693e-05 4.595361838692475e-05 -3.860332334045301e-21
0.06380670583665601 0.06009752832015212 1 7.343598481830693e-05 4.595361838692475e-05 -3.860332334045301e-21
0.06204644515486769 0.05891239723161729 0 6.641327935490884e-05 4.835686109960218e-05 -7.723126037622474e-21
0.06204644515486769 0.05891239723161729 1 6.641327935490884e-05 4.835686109960218e-05 -7.723126037622474e-21
0.0603813244157628 0.05759719287363718 0 5.651803754687703e-05 4.867079471807192e-05 -3.86282326695594e-21
0.0603813244157628 0.05759719287363718 1 5.651803754687703e-05 4.867079471807192e-05 -3.86282326695594e-21
0.05884173024174739 0.05613744697182484 0 4.421614377367763e-05 4.635222117124544e-05 1.581184347395838e-28
0.05884173024174739 0.05613744697182484 1 4.421614377367763e-05 4.635222117124544e-05 1.581184347395838e-28
0.05747484205096139 0.05451553791988431 0 3.060224070091477e-05 4.118492547338756e-05 -7.78277196067921e-21
0.05747484205096139 0.05451553791988431 1 3.060224070091477e-05 4.118492547338757e-05 -7.782771960679208e-21
0.0563575564859076 0.05271384670222621 0 1.757497586589018e-05 3.406504716034682e-05 -9.738721970491528e-21
0.0563575564859076 0.05271384670222621 1 1.757497586589018e-05 3.406504716034682e-05 -9.738721970491525e-21
0.05561607348921617 0.05073012921808873 0 6.911812440184152e-06 2.781936400400748e-05 -1.463992572071809e-21
0.05561607348921617 0.05073012921808873 1 6.911812440184153e-06 2.781936400400748e-05 -1.46399257207181e-21
0.05543194516708912 0.04862419274756256 0 -2.208074044652903e-06 2.586653489909342e-05 4.919735565777934e-22
0.05543194516708912 0.04862419274756256 1 -2.208074044652904e-06 2.586653489909342e-05 4.919735565777933e-22
0.05595269465692156 0.04657787361626259 0 -1.328216758669397e-05 2.82041905736793e-05 1.522862235197817e-26
0.05595269465692156 0.04657787361626259 1 -1.328216758669397e-05 2.82041905736793e-05 1.522862235197817e-26
0.05711677774228519 0.04481295696233443 0 -2.801615769172483e-05 3.116963013043764e-05 -6.005750490573501e-26
0.05711677774228519 0.04481295696233443 1 -2.801615769172483e-05 3.116963013043764e-05 -6.005750490573503e-26
0.05870300680522235 0.04340926560978356 0 -4.432601655962317e-05 3.191074264270738e-05 5.932524402140222e-26
0.05870300680522235 0.04340926560978356 1 -4.432601655962317e-05 3.191074264270738e-05 5.932524402140222e-26
0.06052434015097087 0.04232370367095256 0 -6.062636159912229e-05 3.144007895113001e-05 1.930873739639293e-21
0.06052434015097087 0.04232370367095256 1 -6.062636159912229e-05 3.144007895113001e-05 1.930873739639293e-21
0.06246444569926593 0.04146419356104194 0 -7.3518311006653e-05 3.321040620036443e-05 1.93078520246734e-21
0.06246444569926593 0.04146419356104194 1 -7.3518311006653e-05 3.321040620036443e-05 1.930785202467339e-21
0.06440435464518315 0.0406041405691014 0 -7.274405519219795e-05 3.473058905902397e-05 1.910018219544403e-21
0.06440435464518315 0.0406041405691014 1 -7.274405519219795e-05 3.473058905902397e-05 1.910018219544402e-21
0.06629381558127466 0.03963729585707108 0 -5.978717823945198e-05 3.193258330270275e-05 5.732761639123699e-21
0.06629381558127466 0.03963729585707108 1 -5.978717823945198e-05 3.193258330270275e-05 5.732761639123699e-21
0.0681416062654315 0.03859358120339892 0 -4.845122962070007e-05 2.88464612255016e-05 -5.842793074241488e-25
0.0681416062654315 0.03859358120339892 1 -4.845122962070007e-05 2.88464612255016e-05 -5.842793074241488e-25
0.06993551408990768 0.03745957300652648 0 -4.467975996873697e-05 2.977739184549113e-05 -3.823327663537674e-21
0.06993551408990768 0.03745957300652648 1 -4.467975996873697e-05 2.977739184549113e-05 -3.823327663537674e-21
0.07167395574816454 0.03624223934340034 0 -4.9350065974707e-05 3.654699989382206e-05 -2.900846910009715e-26
0.07167395574816454 0.03624223934340034 1 -4.9350065974707e-05 3.654699989382206e-05 -2.900846910009714e-26
0.07335305817967802 0.03494428070670216 0 -5.866679121091196e-05 4.786482676576785e-05 -3.827678652531888e-21
0.07335305817967802 0.03494428070670216 1 -5.866679121091196e-05 4.786482676576785e-05 -3.827678652531888e-21
0.07496910339780978 0.03356860758292968 0 -6.658660328976579e-05 5.967114779625232e-05 -7.655498627206441e-21
0.07496910339780978 0.03356860758292968 1 -6.658660328976579e-05 5.967114779625232e-05 -7.655498627206441e-21
0.0765184998284103 0.03211827968022618 0 -7.160082028379809e-05 7.044982455734432e-05 -3.827849010623232e-21
0.0765184998284103 0.03211827968022618 1 -7.160082028379809e-05 7.044982455734432e-05 -3.827849010623232e-21
0.07799778223010732 0.03059650262142879 0 -7.471561066036068e-05 8.07656631349932e-05 3.828699664742251e-21
0.07799778223010732 0.03059650262142879 1 -7.471561066036068e-05 8.07656631349932e-05 3.828699664742251e-21
0.0794036611553644 0.02900666481764626 0 -7.743327235071814e-05 9.207705834665478e-05 3.828728872982571e-21
0.0794036611553644 0.02900666481764626 1 -7.743327235071814e-05 9.207705834665478e-05 3.828728872982571e-21
0.08073302938157532 0.02735231932237171 0 -8.082360269527766e-05 0.0001059064475680366 3.834439129619647e-21
0.08073302938157532 0.02735231932237171 1 -8.082360269527766e-05 0.0001059064475680366 3.834439129619647e-21
0.08198292731394433 0.02563714098234519 0 -8.545635155674765e-05 0.0001237274203067826 7.675006279657238e-21
0.08198292731394433 0.02563714098234519 1 -8.545635155674765e-05 0.0001237274203067826 7.675006279657238e-21
0.0831505507594637 0.0238649286231004 0 -9.12445527155775e-05 0.0001464911145545037 3.840567150032519e-21
0.0831505507594637 0.0238649286231004 1 -9.12445527155775e-05 0.0001464911145545037 3.840567150032521e-21
0.08423331443332426 0.02203963374848331 0 -9.741004209183875e-05 0.0001742197572979927 -1.930025974728042e-21
0.08423331443332426 0.02203963374848331 1 -9.741004209183875e-05 0.0001742197572979927 -1.930025974728042e-21
0.0852288285024744 0.02016532557677986 0 -0.0001027308388635766 0.0002059064932873524 -1.930055472354478e-21
0.0852288285024744 0.02016532557677986 1 -0.0001027308388635766 0.0002059064932873524 -1.930055472354478e-21
0.086134869207937 0.01824616490384489 0 -0.00010583729470784 0.0002396865466527614 1.942993532929778e-21
0.086134869207937 0.01824616490384489 1 -0.00010583729470784 0.0002396865466527614 1.942993532929779e-21
0.08694939540006788 0.01628641450361154 0 -0.0001054012903303002 0.0002725864697783221 -6.571643449099425e-24
0.08694939540006788 0.01628641450361154 1 -0.0001054012903303002 0.000272586469778322 -6.571643449098672e-24
0.08767061919803699 0.01429043958063915 0 -0.000100365384300638 0.0003006191947720448 -1.949624551333938e-21
0.08767061919803699 0.01429043958063915 1 -0.000100365384300638 0.0003006191947720448 -1.949624551333938e-21
0.08829694938401166 0.01226268479438618 0 -9.02755790827271e-05 0.0003192446076462336 -1.468386605388847e-30
0.08829694938401166 0.01226268479438618 1 -9.02755790827271e-05 0.0003192446076462336 -1.468386605388847e-30
0.08882697542711024 0.01020765264874918 0 -7.552558242538657e-05 0.0003239504365748195 1.964415848462093e-21
0.08882697542711024 0.01020765264874918 1 -7.552558242538657e-05 0.0003239504365748195 1.964415848462093e-21
0.08925949991661435 0.008129913358253381 0 -5.743310899411865e-05 0.0003108240063424257 1.964370976484219e-21
0.08925949991661435 0.008129913358253381 1 -5.743310899411865e-05 0.0003108240063424257 1.964370976484219e-21
0.08959358917388269 0.006034092891221932 0 -3.788485736702981e-05 0.0002749385963845432 9.841935092714647e-22
0.08959358917388269 0.006034092891221932 1 -3.78848573670298e-05 0.0002749385963845432 9.841935092714649e-22
0.08982850724504027 0.003924852967920573 0 -1.953557583239737e-05 0.0002107658839438435 1.969081486681082e-21
0.08982850724504027 0.003924852967920573 1 -1.953557583239737e-05 0.0002107658839438435 1.969081486681082e-21
0.08996370715406672 0.001806881682381981 0 -6.34375976737082e-06 0.0001317178506659792 9.848725107448015e-22
0.08996370715406672 0.001806881682381981 1 -6.343759767370819e-06 0.0001317178506659792 9.848725107448013e-22
0.08999888139809376 -0.00031510884623629 0 -2.913956894403731e-08 7.220349447098263e-05 2.467391268394618e-22
0.08999888139809376 -0.00031510884623629 1 -2.913956894403731e-08 7.220349447098263e-05 2.467391268394618e-22
0.08993398021011784 -0.002436397665607007 0 1.948387750530124e-06 4.115502028167886e-05 2.467358374437645e-22
0.08993398021011784 -0.002436397665607007 1 1.948387750530124e-06 4.115502028167886e-05 2.467358374437645e-22
0.08976914804419034 -0.004552269140408941 0 1.889715568058133e-06 2.107467227472124e-05 -9.81552416916175e-22
0.08976914804419034 -0.004552269140408941 1 1.889715568058133e-06 2.107467227472124e-05 -9.81552416916175e-22
0.08950472336035058 -0.00665801362905008 0 7.363586789428112e-07 6.02558633145433e-06 -9.815486569644062e-22
0.08950472336035058 -0.00665801362905008 1 7.363586789428112e-07 6.02558633145433e-06 -9.815486569644062e-22
0.08914130036271097 -0.008748947396320969 0 -4.046786059872837e-07 -1.729044666891907e-06 -1.954465619764551e-21
0.08914130036271097 -0.008748947396320969 1 -4.046786059872837e-07 -1.729044666891907e-06 -1.954465619764551e-21
0.08867971198896077 -0.01082042384144119 0 -1.250720241880342e-07 -8.104161470041548e-07 -2.799690650107755e-24
0.08867971198896077 -0.01082042384144119 1 -1.250720241880344e-07 -8.104161470041555e-07 -2.799690650108508e-24
0.08812097789654746 -0.01286783611881395 0 3.344275215424635e-06 1.040807569436154e-05 3.901932479716584e-21
0.08812097789654746 -0.01286783611881395 1 3.344275215424637e-06 1.040807569436155e-05 3.901932479716584e-21
0.08746631333402927 -0.01488662188448975 0 1.128257207828281e-05 3.110703621233675e-05 1.950236800424197e-21
0.08746631333402927 -0.01488662188448975 1 1.128257207828281e-05 3.110703621233675e-05 1.950236800424198e-21
0.08671719168823147 -0.01687229461149217 0 2.381293958904268e-05 5.773038566582861e-05 -1.067030955849488e-30
0.08671719168823147 -0.01687229461149217 1 2.381293958904268e-05 5.773038566582861e-05 -1.067030955849488e-30
0.08587529675095176 -0.01882044560822609 0 3.979320428546072e-05 8.539296565950944e-05 -1.948875242126024e-21
0.08587529675095176 -0.01882044560822609 1 3.979320428546072e-05 8.539296565950944e-05 -1.948875242126024e-21
0.08494248821518582 -0.02072673719131401 0 5.64585953947327e-05 0.0001080832858623576 -1.948904991236196e-21
0.08494248821518582 -0.02072673719131401 1 5.64585953947327e-05 0.0001080832858623576 -1.948904991236196e-21
0.08392081868401015 -0.02258691845702313 0 6.906597379658639e-05 0.0001188033562905382 -9.183549615826919e-41
0.08392081868401015 -0.02258691845702313 1 6.906597379658639e-05 0.0001188033562905382 -9.183549615826919e-41
0.08281258439097421 -0.02439686201615311 0 7.342464462150836e-05 0.0001140561501000336 -3.8794219971102e-21
0.08281258439097421 -0.02439686201615311 1 7.342464462150837e-05 0.0001140561501000336 -3.879421997110199e-21
0.08162025984504226 -0.0261525504558963 0 7.146250890975105e-05 0.0001003893799589236 -3.879362869392462e-21
0.08162025984504226 -0.0261525504558963 1 7.146250890975105e-05 0.0001003893799589236 -3.879362869392462e-21
0.08034647979840699 -0.02785006793922841 0 7.121775319738218e-05 9.042726481212082e-05 -3.870704302447075e-21
0.08034647979840699 -0.02785006793922841 1 7.121775319738218e-05 9.042726481212082e-05 -3.870704302447076e-21
0.07899406575324036 -0.02948562813641942 0 7.778644076190225e-05 8.948557962909241e-05 -3.870733984647137e-21
0.07899406575324036 -0.02948562813641942 1 7.778644076190224e-05 8.948557962909241e-05 -3.870733984647138e-21
0.07756604863869114 -0.03105561099175637 0 8.904751521109338e-05 9.312903835427456e-05 1.074367263078305e-30
0.07756604863869114 -0.03105561099175637 1 8.904751521109338e-05 9.312903835427456e-05 1.074367263066826e-30
0.07606560758894329 -0.03255652954640176 0 0.0001081113872914353 0.0001025743951727471 -2.224244795721489e-28
0.07606560758894329 -0.03255652954640176 1 0.0001081113872914353 0.0001025743951727471 -2.224244795721604e-28
0.07449606127567369 -0.03398502762393985 0 0.0001464421719387912 0.000125918208555262 -3.816652920108406e-21
0.07449606127567369 -0.03398502762393985 1 0.0001464421719387912 0.000125918208555262 -3.816652920108407e-21
0.07286089996315463 -0.03533792347504261 0 0.0002094035545271972 0.0001633974752574936 -7.566335329519762e-21
0.07286089996315463 -0.03533792347504261 1 0.0002094035545271972 0.0001633974752574936 -7.566335329519762e-21
0.07116377817919517 -0.03661222969616333 0 0.0002273743963273209 0.0001629776734124809 -3.749628195563178e-21
0.07116377817919517 -0.03661222969616333 1 0.0002273743963273209 0.0001629776734124809 -3.749628195563177e-21
0.06940846849490777 -0.03780511186355205 0 7.684634532783838e-05 5.425995317042502e-05 -3.20699720392277e-21
0.06940846849490777 -0.03780511186355205 1 7.684634532783838e-05 5.425995317042502e-05 -3.20699720392277e-21
0.06759885885422882 -0.0389138929664895 0 -0.0002438325449935782 -0.0001349117083336662 -3.207022195755197e-21
0.06759885885422882 -0.0389138929664895 1 -0.0002438325449935782 -0.0001349117083336662 -3.207022195755198e-21
0.06573898104459719 -0.03993611299038197 0 -0.0006150180548863303 -0.0003132567520297559 1.782652629666047e-26
0.06573898104459719 -0.03993611299038197 1 -0.0006150180548863305 -0.0003132567520297559 1.782652629666048e-26
0.06383298238694621 -0.04086951967908703 0 -0.000947415570736181 -0.0004318483666182246 -1.102833064115342e-21
0.06383298238694621 -0.04086951967908703 1 -0.0009474155707361809 -0.0004318483666182246 -1.102833064115342e-21
0.06188509711865456 -0.04171203017468929 0 -0.001219582677268663 -0.0004902085368254783 -3.127399825592105e-21
0.06188509711865456 -0.04171203017468929 1 -0.001219582677268664 -0.0004902085368254783 -3.127399825592106e-21
0.05989964743232613 -0.04246174423696938 0 -0.001437606781929735 -0.0005019273969951777 -1.065627485675906e-21
0.05989964743232613 -0.04246174423696938 1 -0.001437606781929735 -0.0005019273969951777 -1.065627485675906e-21
0.05788105807479971 -0.04311701224980764 0 -0.001610592673470975 -0.0004793871595175558 1.898726197308773e-21
0.05788105807479971 -0.04311701224980764 1 -0.001610592673470975 -0.0004793871595175558 1.898726197308773e-21
0.0558338229921187 -0.04367639404821192 0 -0.001744319416061779 -0.0004315241437868332 1.892118943841929e-21
0.0558338229921187 -0.04367639404821192 1 -0.001744319416061779 -0.0004315241437868332 1.892118943841929e-21
0.0537624911249986 -0.04413863094599227 0 -0.001840319556095486 -0.0003647481664859205 1.449217423872598e-21
0.0537624911249986 -0.04413863094599227 1 -0.001840319556095486 -0.0003647481664859205 1.449217423872598e-21
0.05167166416514422 -0.04450267241128921 0 -0.001895145217555174 -0.0002841123876280105 1.027856885435094e-21
0.05167166416514422 -0.04450267241128921 1 -0.001895145217555174 -0.0002841123876280105 1.027856885435094e-21
0.04956600010304497 -0.04476773469865752 0 -0.001899902569234647 -0.00019448892351849 5.309513501279454e-22
0.04956600010304497 -0.04476773469865752 1 -0.001899902569234647 -0.00019448892351849 5.309513501279454e-22
0.04745018170177457 -0.04493323934481321 0 -0.001849956088641003 -0.0001022202346029408 3.187940111293485e-28
0.04745018170177457 -0.04493323934481321 1 -0.001849956088641003 -0.0001022202346029408 3.187940111293485e-28
0.04532891206703462 -0.04499879665602114 0 -0.001766514531853968 -1.433477351453415e-05 5.117683398400513e-27
0.04532891206703462 -0.04499879665602114 1 -0.001766514531853968 -1.433477351453415e-05 5.117683398400513e-27
0.04320691153169842 -0.04496424755616887 0 -0.001696959046915384 6.683908751368772e-05 3.870160971897535e-22
0.04320691153169842 -0.04496424755616887 1 -0.001696959046915384 6.68390875136877e-05 3.870160971897534e-22
0.04108889945805829 -0.04482969796728467 0 -0.001660548080617541 0.000144408656553475 3.870136055409984e-22
0.04108889945805829 -0.04482969796728467 1 -0.001660548080617541 0.000144408656553475 3.870136055409983e-22
0.03897958464900957 -0.04459545096023537 0 -0.001631633651598621 0.0002197099910438854 -9.426889684542709e-22
0.03897958464900957 -0.04459545096023537 1 -0.001631633651598621 0.0002197099910438854 -9.426889684542709e-22
0.03688366175917863 -0.04426200102463859 0 -0.001586603564309842 0.0002901052281100553 9.009201656387913e-23
0.03688366175917863 -0.04426200102463859 1 -0.001586603564309842 0.0002901052281100554 9.009201656387857e-23
0.03480579456046351 -0.04383008923927619 0 -0.001519292918411246 0.0003522352412600886 1.032783917475373e-21
0.03480579456046351 -0.04383008923927619 1 -0.001519292918411246 0.0003522352412600886 1.032783917475373e-21
0.03275059896137497 -0.04330070288149297 0 -0.001429986922790591 0.0004030958986490789 -4.861528553369121e-21
0.03275059896137497 -0.04330070288149297 1 -0.001429986922790591 0.0004030958986490789 -4.861528553369121e-21
0.03072264516066991 -0.04267501609144776 0 -0.001319986942665638 0.0004398711381922377 -4.861569934763133e-21
0.03072264516066991 -0.04267501609144776 1 -0.001319986942665638 0.0004398711381922377 -4.861569934763132e-21
0.02872645282557088 -0.04195439296317724 0 -0.001191001980902295 0.0004599162585486685 -3.844893266321747e-26
0.02872645282557088 -0.04195439296317724 1 -0.001191001980902295 0.0004599162585486685 -3.844893266321748e-26
0.02676645973312072 -0.04114044781043784 0 -0.001045162674643518 0.0004608377434943754 -1.047111620945334e-37
0.02676645973312072 -0.04114044781043784 1 -0.001045162674643518 0.0004608377434943754 -1.047111620945333e-37
0.02484701597497448 -0.04023501154797528 0 -0.0008849401549541748 0.0004405356877152833 3.071157082163518e-21
0.02484701597497448 -0.04023501154797528 1 -0.0008849401549541748 0.0004405356877152833 3.071157082163517e-21
0.02297239375637241 -0.03924008852774167 0 -0.0007130228232893959 0.0003971982933022802 3.071160823824818e-21
0.02297239375637241 -0.03924008852774167 1 -0.0007130228232893959 0.0003971982933022801 3.071160823824817e-21
0.02114677607202451 -0.0381578676531702 0 -0.0005323011786715175 0.0003293279501994875 -6.562711087053593e-21
0.02114677607202451 -0.0381578676531702 1 -0.0005323011786715175 0.0003293279501994875 -6.562711087053593e-21
0.01937421603746375 -0.03699077719537148 0 -0.0003457865230822897 0.0002357344802300044 1.270597310959101e-22
0.01937421603746375 -0.03699077719537148 1 -0.0003457865230822897 0.0002357344802300044 1.270597310959101e-22
0.01765864028477777 -0.03574142173784726 0 -0.0001568459543543105 0.0001157628907366075 6.689774559841229e-21
0.01765864028477777 -0.03574142173784726 1 -0.0001568459543543105 0.0001157628907366075 6.689774559841229e-21
0.01600387925443261 -0.03441256979608241 0 3.078475709933294e-05 -3.058970466618063e-05 -2.527942429642484e-42
0.01600387925443261 -0.03441256979608241 1 3.078475709933292e-05 -3.058970466618061e-05 -2.527942429642484e-42
0.01441362614459595 -0.03300716032399199 0 0.0002138985162034323 -0.0002033483647670684 -5.001797637686313e-26
0.01441362614459595 -0.03300716032399199 1 0.0002138985162034323 -0.0002033483647670685 -5.001797637686314e-26
0.01289140025251793 -0.03152834067393862 0 0.0003894510300048979 -0.0004022902021940268 6.465533364931452e-21
0.01289140025251793 -0.03152834067393862 1 0.0003894510300048979 -0.0004022902021940268 6.465533364931452e-21
0.01144057984574059 -0.02997940574184144 0 0.0005539079303429922 -0.0006263095785114626 2.696284885189033e-22
0.01144057984574059 -0.02997940574184144 1 0.0005539079303429922 -0.0006263095785114626 2.696284885189033e-22
0.01006440787936498 -0.02836378407827757 0 0.0007039398760883334 -0.0008739589910490869 -3.650829050758675e-22
0.01006440787936498 -0.02836378407827757 1 0.0007039398760883334 -0.0008739589910490869 -3.650829050758675e-22
0.008765954982568212 -0.02668506437136304 0 0.0008365050040332041 -0.001143507345802017 4.644384963899913e-22
0.008765954982568212 -0.02668506437136304 1 0.0008365050040332041 -0.001143507345802017 4.644384963899935e-22
0.007548086150267252 -0.02494699799855245 0 0.0009486797394129455 -0.001432739874328222 -5.366433492923928e-21
0.007548086150267252 -0.02494699799855245 1 0.0009486797394129455 -0.001432739874328222 -5.366433492923926e-21
0.006413507468235477 -0.02315345104731803 0 0.001037785656204158 -0.001739047610562883 4.128653323871443e-21
0.006413507468235477 -0.02315345104731803 1 0.001037785656204158 -0.001739047610562883 4.128653323871443e-21
0.005364765407059734 -0.02130839752258448 0 0.001101454363924303 -0.002059485245234072 4.128631103077446e-21
0.005364765407059734 -0.02130839752258448 1 0.001101454363924303 -0.002059485245234072 4.128631103077446e-21
0.004404192104329557 -0.01941594440268608 0 0.001137767296814506 -0.002391016941663486 -2.470494409234545e-21
0.004404192104329557 -0.01941594440268608 1 0.001137767296814506 -0.002391016941663486 -2.470494409234545e-21
0.003533900354574854 -0.01748031243498698 0 0.001145312846255883 -0.002730758523502636 -1.728370173964094e-21
0.003533900354574854 -0.01748031243498698 1 0.001145312846255883 -0.002730758523502635 -1.728370173964094e-21
0.002755829267213992 -0.01550580331717607 0 0.0011238392712045 -0.003078207465008899 5.4434080572558e-22
0.002755829267213992 -0.01550580331717607 1 0.0011238392712045 -0.0030782074650089 5.443408057255798e-22
0.002071736768582362 -0.01349679891228072 0 0.001078594990885047 -0.003452249270312899 1.97653806172306e-22
0.002071736768582362 -0.01349679891228072 1 0.001078594990885047 -0.003452249270312899 1.97653806172306e-22
0.001483131521754614 -0.01145777376501697 0 0.001020825285065866 -0.003910349229050119 3.954095587346514e-22
0.001483131521754614 -0.01145777376501697 1 0.001020825285065866 -0.003910349229050119 3.954095587346514e-22
0.0009913021377216411 -0.009393268267140471 0 0.000947672436710215 -0.004490149679661426 -8.57586827677897e-22
0.0009913021377216411 -0.009393268267140471 1 0.000947672436710215 -0.004490149679661426 -8.575868276778968e-22
0.0005973534115691686 -0.007307870549212395 0 0.0008331299913702406 -0.00513024279696233 -8.575813714899081e-22
0.0005973534115691686 -0.007307870549212395 1 0.0008331299913702406 -0.00513024279696233 -8.575813714899081e-22
0.0003021876287288942 -0.005206213969265315 0 0.0006579162959749089 -0.005743731726376896 -7.990672999693517e-22
0.0003021876287288942 -0.005206213969265315 1 0.0006579162959749088 -0.005743731726376896 -7.990672999693519e-22
0.0001064382805403098 -0.003092979172689267 0 0.0004235896513292918 -0.006310712193412607 -7.990741934597477e-22
0.0001064382805403098 -0.003092979172689267 1 0.0004235896513292918 -0.006310712193412607 -7.990741934597477e-22
1.052597953041825e-05 -0.0009728659377106612 0 0.0001364885579338621 -0.006844356998716735 -3.75246562904611e-23
1.052597953041825e-05 -0.0009728659377106612 1 0.0001364885579338621 -0.006844356998716735 -3.75246562904611e-23
1.468229478084188e-05 0.001149412130929496 0 -0.0001999138134608068 -0.007353660261311725 -2.151303279386585e-21
1.468229478084188e-05 0.001149412130929496 1 -0.0001999138134608068 -0.007353660261311725 -2.151303279386585e-21
0.0001189169651671751 0.003269132865503309 0 -0.0005836245463039589 -0.007840064497182466 -5.355523296218608e-21
0.0001189169651671751 0.003269132865503309 1 -0.0005836245463039589 -0.007840064497182466 -5.355523296218608e-21
0.0003229696783196427 0.005381582048867738 0 -0.001012417301578221 -0.008296943903638866 -3.241737779631885e-21
0.0003229696783196427 0.005381582048867738 1 -0.001012417301578222 -0.008296943903638868 -3.241737779631884e-21
0.0006263790699420616 0.007482063594677252 0 -0.001482586661319215 -0.008713443064863323 3.62981002280002e-37
0.0006263790699420616 0.007482063594677252 1 -0.001482586661319214 -0.008713443064863323 3.629810022800021e-37
0.001028494369667941 0.009565902609993477 0 -0.001989052774794702 -0.009080060553160203 -7.203607357269082e-26
0.001028494369667941 0.009565902609993477 1 -0.001989052774794702 -0.009080060553160203 -7.203607357269082e-26
0.001528428403554193 0.01162846073254587 0 -0.002525756862496039 -0.009390059323277496 9.847250777767611e-21
0.001528428403554193 0.01162846073254587 1 -0.002525756862496039 -0.009390059323277496 9.847250777767613e-21
0.002125041351970114 0.01366515705685875 0 -0.003085449515294832 -0.009636567928388908 2.048799791236967e-20
0.002125041351970114 0.01366515705685875 1 -0.003085449515294832 -0.009636567928388908 2.048799791236967e-20
0.002817005955384981 0.01567146342326204 0 -0.003659213542877113 -0.009811646260093745 1.064084315992998e-20
0.002817005955384981 0.01567146342326204 1 -0.003659213542877113 -0.009811646260093745 1.064084315992997e-20
0.003602809710915968 0.01764290807150909 0 -0.004236090595260621 -0.009906835388153342 1.680613950256208e-25
0.003602809710915968 0.01764290807150909 1 -0.004236090595260621 -0.009906835388153342 1.680613950256208e-25
0.004480699571727095 0.01957510614698765 0 -0.004803408182574504 -0.009914749116078543 2.769916294280865e-37
0.004480699571727095 0.01957510614698765 1 -0.004803408182574504 -0.009914749116078541 2.769916294280866e-37
0.005448699964658826 0.02146377081566385 0 -0.005346503812561743 -0.009828405009507964 -5.172147672515528e-25
0.005448699964658826 0.02146377081566385 1 -0.005346503812561743 -0.009828405009507966 -5.172147672515527e-25
0.006504664231148132 0.02330470025967932 0 -0.005846981852007348 -0.009638859671041111 -9.610953654888059e-26
0.006504664231148132 0.02330470025967932 1 -0.005846981852007348 -0.009638859671041111 -9.610953654888041e-26
0.007646267994301661 0.02509378425313459 0 -0.006279972145172714 -0.009333336146067735 5.68391789739992e-20
0.007646267994301661 0.02509378425313459 1 -0.006279972145172714 -0.009333336146067735 5.68391789739992e-20
0.008870957396802282 0.0268270514867057 0 -0.006604004146221696 -0.008884892526183151 5.683875786874452e-20
0.008870957396802282 0.0268270514867057 1 -0.006604004146221696 -0.008884892526183151 5.683875786874453e-20
0.0101759891614797 0.02850066168444349 0 -0.006753196559704556 -0.008249466653280663 2.190254346574235e-25
0.0101759891614797 0.02850066168444349 1 -0.006753196559704556 -0.008249466653280663 2.190254346574236e-25
0.01155848285351726 0.03011087728614862 0 -0.006708751499564162 -0.007515986414874729 2.145718150085512e-25
0.01155848285351726 0.03011087728614862 1 -0.006708751499564162 -0.007515986414874729 2.145718150085513e-25
0.01305397806222087 0.03172503461209827 0 -0.006652630744212868 -0.006973519132893105 -2.690462876440633e-20
0.01305397806222087 0.03172503461209827 1 -0.006652630744212868 -0.006973519132893105 -2.690462876440634e-20
0.01459375598126544 0.03329701281388199 0 -0.006743179951539726 -0.006695272376792394 -5.372434695088127e-20
0.01459375598126544 0.03329701281388199 1 -0.006743179951539727 -0.006695272376792394 -5.372434695088127e-20
0.01617515080572486 0.03482712490246395 0 -0.00687126901828539 -0.006473429805501986 -2.681972264009808e-20
0.01617515080572486 0.03482712490246395 1 -0.00687126901828539 -0.006473429805501986 -2.681972264009807e-20
0.01779560068713158 0.03631582041603447 0 -0.00694553097366532 -0.006218764167838823 -2.036899072543954e-25
0.01779560068713158 0.03631582041603447 1 -0.00694553097366532 -0.006218764167838823 -2.036899072543954e-25
0.01945264557865655 0.03776367850346549 0 -0.006992648847977316 -0.005959503395010106 -2.666949190632096e-20
0.01945264557865655 0.03776367850346549 1 -0.006992648847977316 -0.005959503395010106 -2.666949190632096e-20
0.02114395901696338 0.03917136019054666 0 -0.007026779022601121 -0.005708645689293204 -5.32562956844259e-20
0.02114395901696338 0.03917136019054666 1 -0.007026779022601121 -0.005708645689293204 -5.32562956844259e-20
0.0228673369469839 0.04053960508683319 0 -0.007048375010714683 -0.005465980134816915 -9.62815789296486e-23
0.0228673369469839 0.04053960508683319 1 -0.007048375010714683 -0.005465980134816914 -9.628157892963657e-23
0.02462069552559515 0.04186921947093675 0 -0.007056294040267242 -0.005230042314746534 2.64909265904879e-20
0.02462069552559515 0.04186921947093675 1 -0.007056294040267242 -0.005230042314746534 2.64909265904879e-20
0.02640207023443881 0.0431610627362803 0 -0.007051418529404888 -0.005001011757291558 4.015082715816711e-25
0.02640207023443881 0.0431610627362803 1 -0.007051418529404888 -0.005001011757291558 4.015082715816711e-25
0.02820962531157012 0.04441601811391003 0 -0.007035345792107718 -0.004779499560060707 2.008070399934918e-25
0.02820962531157012 0.04441601811391003 1 -0.007035345792107718 -0.004779499560060707 2.008070399934918e-25
0.03004164175827331 0.04563499170337253 0 -0.007009348227526104 -0.004565819093971952 -2.594467962876404e-20
0.03004164175827331 0.04563499170337253 1 -0.007009348227526104 -0.004565819093971952 -2.594467962876403e-20
0.03189651250790394 0.04681890334690637 0 -0.006974542552241673 -0.004360105585420196 -2.594428640950094e-20