/*--------------------------------*- C++ -*----------------------------------*\
| =========                 |                                                 |
| \\      /  F ield         | OpenFOAM: The Open Source CFD Toolbox           |
|  \\    /   O peration     | Version:  2006                                  |
|   \\  /    A nd           | Website:  www.openfoam.com                      |
|    \\/     M anipulation  |                                                 |
\*---------------------------------------------------------------------------*/
FoamFile
{
    version     2.0;
    format      ascii;
    class       volScalarField;
    location    "1";
    object      ReThetat;
}
// * * * * * * * * * * * * * * * * * * * * * * * * * * * * * * * * * * * * * //

dimensions      [0 0 0 0 0 0 0];


internalField   uniform 160.99;

boundaryField
{
    airfoil
    {
        type            zeroGradient;
    }
    farfield
    {
        type            fixedValue;
        value           uniform 160.99;
    }
    side
    {
        type            empty;
    }
    procBoundary0to1
    {
        type            processor;
        value           uniform 160.99;
    }
    procBoundary0to2
    {
        type            processor;
        value           uniform 160.99;
    }
    procBoundary0to3
    {
        type            processor;
        value           uniform 160.99;
    }
}


// ************************************************************************* //
